V -t * -v 1.0a5 -a 0
A -t * -n 1 -p 0 -o 0x7fffffff -c 30 -a 1
A -t * -h 1 -m 1073741823 -s 0
c -t * -i 1 -n Blue
c -t * -i 2 -n Red
c -t * -i 3 -n Yellow
n -t * -a 4 -s 4 -S UP -v circle -c black -i black
n -t * -a 0 -s 0 -S UP -v circle -c black -i black
n -t * -a 5 -s 5 -S UP -v circle -c black -i black
n -t * -a 1 -s 1 -S UP -v circle -c black -i black
n -t * -a 2 -s 2 -S UP -v circle -c black -i black
n -t * -a 3 -s 3 -S UP -v circle -c black -i black
l -t * -s 0 -d 3 -S UP -r 2000000 -D 0.01 -c black -o left-up
l -t * -s 1 -d 3 -S UP -r 1700000 -D 0.025000000000000001 -c black -o up
l -t * -s 2 -d 3 -S UP -r 3000000 -D 0.0070000000000000001 -c black -o right-up
l -t * -s 4 -d 3 -S UP -r 2500000 -D 0.0090000000000000011 -c black -o left-down
l -t * -s 5 -d 3 -S UP -r 2000000 -D 0.01 -c black -o right-down
q -t * -s 3 -d 5 -a 0.5
q -t * -s 5 -d 3 -a 0.5
q -t * -s 3 -d 1 -a 0.6
q -t * -s 1 -d 3 -a 0.6
+ -t 0.1 -s 2 -d 3 -p cbr -e 1000 -c 3 -i 0 -a 3 -x {2.0 5.1 0 ------- null}
- -t 0.1 -s 2 -d 3 -p cbr -e 1000 -c 3 -i 0 -a 3 -x {2.0 5.1 0 ------- null}
h -t 0.1 -s 2 -d 3 -p cbr -e 1000 -c 3 -i 0 -a 3 -x {2.0 5.1 -1 ------- null}
+ -t 0.108 -s 2 -d 3 -p cbr -e 1000 -c 3 -i 1 -a 3 -x {2.0 5.1 1 ------- null}
- -t 0.108 -s 2 -d 3 -p cbr -e 1000 -c 3 -i 1 -a 3 -x {2.0 5.1 1 ------- null}
h -t 0.108 -s 2 -d 3 -p cbr -e 1000 -c 3 -i 1 -a 3 -x {2.0 5.1 -1 ------- null}
r -t 0.109666666666667 -s 2 -d 3 -p cbr -e 1000 -c 3 -i 0 -a 3 -x {2.0 5.1 0 ------- null}
+ -t 0.109666666666667 -s 3 -d 5 -p cbr -e 1000 -c 3 -i 0 -a 3 -x {2.0 5.1 0 ------- null}
- -t 0.109666666666667 -s 3 -d 5 -p cbr -e 1000 -c 3 -i 0 -a 3 -x {2.0 5.1 0 ------- null}
h -t 0.109666666666667 -s 3 -d 5 -p cbr -e 1000 -c 3 -i 0 -a 3 -x {2.0 5.1 -1 ------- null}
+ -t 0.116 -s 2 -d 3 -p cbr -e 1000 -c 3 -i 2 -a 3 -x {2.0 5.1 2 ------- null}
- -t 0.116 -s 2 -d 3 -p cbr -e 1000 -c 3 -i 2 -a 3 -x {2.0 5.1 2 ------- null}
h -t 0.116 -s 2 -d 3 -p cbr -e 1000 -c 3 -i 2 -a 3 -x {2.0 5.1 -1 ------- null}
r -t 0.117666666666667 -s 2 -d 3 -p cbr -e 1000 -c 3 -i 1 -a 3 -x {2.0 5.1 1 ------- null}
+ -t 0.117666666666667 -s 3 -d 5 -p cbr -e 1000 -c 3 -i 1 -a 3 -x {2.0 5.1 1 ------- null}
- -t 0.117666666666667 -s 3 -d 5 -p cbr -e 1000 -c 3 -i 1 -a 3 -x {2.0 5.1 1 ------- null}
h -t 0.117666666666667 -s 3 -d 5 -p cbr -e 1000 -c 3 -i 1 -a 3 -x {2.0 5.1 -1 ------- null}
r -t 0.123666666666667 -s 3 -d 5 -p cbr -e 1000 -c 3 -i 0 -a 3 -x {2.0 5.1 0 ------- null}
+ -t 0.124 -s 2 -d 3 -p cbr -e 1000 -c 3 -i 3 -a 3 -x {2.0 5.1 3 ------- null}
- -t 0.124 -s 2 -d 3 -p cbr -e 1000 -c 3 -i 3 -a 3 -x {2.0 5.1 3 ------- null}
h -t 0.124 -s 2 -d 3 -p cbr -e 1000 -c 3 -i 3 -a 3 -x {2.0 5.1 -1 ------- null}
r -t 0.125666666666667 -s 2 -d 3 -p cbr -e 1000 -c 3 -i 2 -a 3 -x {2.0 5.1 2 ------- null}
+ -t 0.125666666666667 -s 3 -d 5 -p cbr -e 1000 -c 3 -i 2 -a 3 -x {2.0 5.1 2 ------- null}
- -t 0.125666666666667 -s 3 -d 5 -p cbr -e 1000 -c 3 -i 2 -a 3 -x {2.0 5.1 2 ------- null}
h -t 0.125666666666667 -s 3 -d 5 -p cbr -e 1000 -c 3 -i 2 -a 3 -x {2.0 5.1 -1 ------- null}
r -t 0.131666666666667 -s 3 -d 5 -p cbr -e 1000 -c 3 -i 1 -a 3 -x {2.0 5.1 1 ------- null}
+ -t 0.132 -s 2 -d 3 -p cbr -e 1000 -c 3 -i 4 -a 3 -x {2.0 5.1 4 ------- null}
- -t 0.132 -s 2 -d 3 -p cbr -e 1000 -c 3 -i 4 -a 3 -x {2.0 5.1 4 ------- null}
h -t 0.132 -s 2 -d 3 -p cbr -e 1000 -c 3 -i 4 -a 3 -x {2.0 5.1 -1 ------- null}
r -t 0.133666666666667 -s 2 -d 3 -p cbr -e 1000 -c 3 -i 3 -a 3 -x {2.0 5.1 3 ------- null}
+ -t 0.133666666666667 -s 3 -d 5 -p cbr -e 1000 -c 3 -i 3 -a 3 -x {2.0 5.1 3 ------- null}
- -t 0.133666666666667 -s 3 -d 5 -p cbr -e 1000 -c 3 -i 3 -a 3 -x {2.0 5.1 3 ------- null}
h -t 0.133666666666667 -s 3 -d 5 -p cbr -e 1000 -c 3 -i 3 -a 3 -x {2.0 5.1 -1 ------- null}
r -t 0.139666666666667 -s 3 -d 5 -p cbr -e 1000 -c 3 -i 2 -a 3 -x {2.0 5.1 2 ------- null}
+ -t 0.14 -s 2 -d 3 -p cbr -e 1000 -c 3 -i 5 -a 3 -x {2.0 5.1 5 ------- null}
- -t 0.14 -s 2 -d 3 -p cbr -e 1000 -c 3 -i 5 -a 3 -x {2.0 5.1 5 ------- null}
h -t 0.14 -s 2 -d 3 -p cbr -e 1000 -c 3 -i 5 -a 3 -x {2.0 5.1 -1 ------- null}
r -t 0.141666666666667 -s 2 -d 3 -p cbr -e 1000 -c 3 -i 4 -a 3 -x {2.0 5.1 4 ------- null}
+ -t 0.141666666666667 -s 3 -d 5 -p cbr -e 1000 -c 3 -i 4 -a 3 -x {2.0 5.1 4 ------- null}
- -t 0.141666666666667 -s 3 -d 5 -p cbr -e 1000 -c 3 -i 4 -a 3 -x {2.0 5.1 4 ------- null}
h -t 0.141666666666667 -s 3 -d 5 -p cbr -e 1000 -c 3 -i 4 -a 3 -x {2.0 5.1 -1 ------- null}
r -t 0.147666666666667 -s 3 -d 5 -p cbr -e 1000 -c 3 -i 3 -a 3 -x {2.0 5.1 3 ------- null}
+ -t 0.148 -s 2 -d 3 -p cbr -e 1000 -c 3 -i 6 -a 3 -x {2.0 5.1 6 ------- null}
- -t 0.148 -s 2 -d 3 -p cbr -e 1000 -c 3 -i 6 -a 3 -x {2.0 5.1 6 ------- null}
h -t 0.148 -s 2 -d 3 -p cbr -e 1000 -c 3 -i 6 -a 3 -x {2.0 5.1 -1 ------- null}
r -t 0.149666666666667 -s 2 -d 3 -p cbr -e 1000 -c 3 -i 5 -a 3 -x {2.0 5.1 5 ------- null}
+ -t 0.149666666666667 -s 3 -d 5 -p cbr -e 1000 -c 3 -i 5 -a 3 -x {2.0 5.1 5 ------- null}
- -t 0.149666666666667 -s 3 -d 5 -p cbr -e 1000 -c 3 -i 5 -a 3 -x {2.0 5.1 5 ------- null}
h -t 0.149666666666667 -s 3 -d 5 -p cbr -e 1000 -c 3 -i 5 -a 3 -x {2.0 5.1 -1 ------- null}
r -t 0.155666666666667 -s 3 -d 5 -p cbr -e 1000 -c 3 -i 4 -a 3 -x {2.0 5.1 4 ------- null}
+ -t 0.156 -s 2 -d 3 -p cbr -e 1000 -c 3 -i 7 -a 3 -x {2.0 5.1 7 ------- null}
- -t 0.156 -s 2 -d 3 -p cbr -e 1000 -c 3 -i 7 -a 3 -x {2.0 5.1 7 ------- null}
h -t 0.156 -s 2 -d 3 -p cbr -e 1000 -c 3 -i 7 -a 3 -x {2.0 5.1 -1 ------- null}
r -t 0.157666666666667 -s 2 -d 3 -p cbr -e 1000 -c 3 -i 6 -a 3 -x {2.0 5.1 6 ------- null}
+ -t 0.157666666666667 -s 3 -d 5 -p cbr -e 1000 -c 3 -i 6 -a 3 -x {2.0 5.1 6 ------- null}
- -t 0.157666666666667 -s 3 -d 5 -p cbr -e 1000 -c 3 -i 6 -a 3 -x {2.0 5.1 6 ------- null}
h -t 0.157666666666667 -s 3 -d 5 -p cbr -e 1000 -c 3 -i 6 -a 3 -x {2.0 5.1 -1 ------- null}
r -t 0.163666666666667 -s 3 -d 5 -p cbr -e 1000 -c 3 -i 5 -a 3 -x {2.0 5.1 5 ------- null}
+ -t 0.164 -s 2 -d 3 -p cbr -e 1000 -c 3 -i 8 -a 3 -x {2.0 5.1 8 ------- null}
- -t 0.164 -s 2 -d 3 -p cbr -e 1000 -c 3 -i 8 -a 3 -x {2.0 5.1 8 ------- null}
h -t 0.164 -s 2 -d 3 -p cbr -e 1000 -c 3 -i 8 -a 3 -x {2.0 5.1 -1 ------- null}
r -t 0.165666666666667 -s 2 -d 3 -p cbr -e 1000 -c 3 -i 7 -a 3 -x {2.0 5.1 7 ------- null}
+ -t 0.165666666666667 -s 3 -d 5 -p cbr -e 1000 -c 3 -i 7 -a 3 -x {2.0 5.1 7 ------- null}
- -t 0.165666666666667 -s 3 -d 5 -p cbr -e 1000 -c 3 -i 7 -a 3 -x {2.0 5.1 7 ------- null}
h -t 0.165666666666667 -s 3 -d 5 -p cbr -e 1000 -c 3 -i 7 -a 3 -x {2.0 5.1 -1 ------- null}
r -t 0.171666666666667 -s 3 -d 5 -p cbr -e 1000 -c 3 -i 6 -a 3 -x {2.0 5.1 6 ------- null}
+ -t 0.172 -s 2 -d 3 -p cbr -e 1000 -c 3 -i 9 -a 3 -x {2.0 5.1 9 ------- null}
- -t 0.172 -s 2 -d 3 -p cbr -e 1000 -c 3 -i 9 -a 3 -x {2.0 5.1 9 ------- null}
h -t 0.172 -s 2 -d 3 -p cbr -e 1000 -c 3 -i 9 -a 3 -x {2.0 5.1 -1 ------- null}
r -t 0.173666666666667 -s 2 -d 3 -p cbr -e 1000 -c 3 -i 8 -a 3 -x {2.0 5.1 8 ------- null}
+ -t 0.173666666666667 -s 3 -d 5 -p cbr -e 1000 -c 3 -i 8 -a 3 -x {2.0 5.1 8 ------- null}
- -t 0.173666666666667 -s 3 -d 5 -p cbr -e 1000 -c 3 -i 8 -a 3 -x {2.0 5.1 8 ------- null}
h -t 0.173666666666667 -s 3 -d 5 -p cbr -e 1000 -c 3 -i 8 -a 3 -x {2.0 5.1 -1 ------- null}
r -t 0.179666666666667 -s 3 -d 5 -p cbr -e 1000 -c 3 -i 7 -a 3 -x {2.0 5.1 7 ------- null}
+ -t 0.18 -s 2 -d 3 -p cbr -e 1000 -c 3 -i 10 -a 3 -x {2.0 5.1 10 ------- null}
- -t 0.18 -s 2 -d 3 -p cbr -e 1000 -c 3 -i 10 -a 3 -x {2.0 5.1 10 ------- null}
h -t 0.18 -s 2 -d 3 -p cbr -e 1000 -c 3 -i 10 -a 3 -x {2.0 5.1 -1 ------- null}
r -t 0.181666666666667 -s 2 -d 3 -p cbr -e 1000 -c 3 -i 9 -a 3 -x {2.0 5.1 9 ------- null}
+ -t 0.181666666666667 -s 3 -d 5 -p cbr -e 1000 -c 3 -i 9 -a 3 -x {2.0 5.1 9 ------- null}
- -t 0.181666666666667 -s 3 -d 5 -p cbr -e 1000 -c 3 -i 9 -a 3 -x {2.0 5.1 9 ------- null}
h -t 0.181666666666667 -s 3 -d 5 -p cbr -e 1000 -c 3 -i 9 -a 3 -x {2.0 5.1 -1 ------- null}
r -t 0.187666666666667 -s 3 -d 5 -p cbr -e 1000 -c 3 -i 8 -a 3 -x {2.0 5.1 8 ------- null}
+ -t 0.188 -s 2 -d 3 -p cbr -e 1000 -c 3 -i 11 -a 3 -x {2.0 5.1 11 ------- null}
- -t 0.188 -s 2 -d 3 -p cbr -e 1000 -c 3 -i 11 -a 3 -x {2.0 5.1 11 ------- null}
h -t 0.188 -s 2 -d 3 -p cbr -e 1000 -c 3 -i 11 -a 3 -x {2.0 5.1 -1 ------- null}
r -t 0.189666666666667 -s 2 -d 3 -p cbr -e 1000 -c 3 -i 10 -a 3 -x {2.0 5.1 10 ------- null}
+ -t 0.189666666666667 -s 3 -d 5 -p cbr -e 1000 -c 3 -i 10 -a 3 -x {2.0 5.1 10 ------- null}
- -t 0.189666666666667 -s 3 -d 5 -p cbr -e 1000 -c 3 -i 10 -a 3 -x {2.0 5.1 10 ------- null}
h -t 0.189666666666667 -s 3 -d 5 -p cbr -e 1000 -c 3 -i 10 -a 3 -x {2.0 5.1 -1 ------- null}
r -t 0.195666666666667 -s 3 -d 5 -p cbr -e 1000 -c 3 -i 9 -a 3 -x {2.0 5.1 9 ------- null}
+ -t 0.196 -s 2 -d 3 -p cbr -e 1000 -c 3 -i 12 -a 3 -x {2.0 5.1 12 ------- null}
- -t 0.196 -s 2 -d 3 -p cbr -e 1000 -c 3 -i 12 -a 3 -x {2.0 5.1 12 ------- null}
h -t 0.196 -s 2 -d 3 -p cbr -e 1000 -c 3 -i 12 -a 3 -x {2.0 5.1 -1 ------- null}
r -t 0.197666666666667 -s 2 -d 3 -p cbr -e 1000 -c 3 -i 11 -a 3 -x {2.0 5.1 11 ------- null}
+ -t 0.197666666666667 -s 3 -d 5 -p cbr -e 1000 -c 3 -i 11 -a 3 -x {2.0 5.1 11 ------- null}
- -t 0.197666666666667 -s 3 -d 5 -p cbr -e 1000 -c 3 -i 11 -a 3 -x {2.0 5.1 11 ------- null}
h -t 0.197666666666667 -s 3 -d 5 -p cbr -e 1000 -c 3 -i 11 -a 3 -x {2.0 5.1 -1 ------- null}
r -t 0.203666666666667 -s 3 -d 5 -p cbr -e 1000 -c 3 -i 10 -a 3 -x {2.0 5.1 10 ------- null}
+ -t 0.204 -s 2 -d 3 -p cbr -e 1000 -c 3 -i 13 -a 3 -x {2.0 5.1 13 ------- null}
- -t 0.204 -s 2 -d 3 -p cbr -e 1000 -c 3 -i 13 -a 3 -x {2.0 5.1 13 ------- null}
h -t 0.204 -s 2 -d 3 -p cbr -e 1000 -c 3 -i 13 -a 3 -x {2.0 5.1 -1 ------- null}
r -t 0.205666666666667 -s 2 -d 3 -p cbr -e 1000 -c 3 -i 12 -a 3 -x {2.0 5.1 12 ------- null}
+ -t 0.205666666666667 -s 3 -d 5 -p cbr -e 1000 -c 3 -i 12 -a 3 -x {2.0 5.1 12 ------- null}
- -t 0.205666666666667 -s 3 -d 5 -p cbr -e 1000 -c 3 -i 12 -a 3 -x {2.0 5.1 12 ------- null}
h -t 0.205666666666667 -s 3 -d 5 -p cbr -e 1000 -c 3 -i 12 -a 3 -x {2.0 5.1 -1 ------- null}
r -t 0.211666666666667 -s 3 -d 5 -p cbr -e 1000 -c 3 -i 11 -a 3 -x {2.0 5.1 11 ------- null}
+ -t 0.212 -s 2 -d 3 -p cbr -e 1000 -c 3 -i 14 -a 3 -x {2.0 5.1 14 ------- null}
- -t 0.212 -s 2 -d 3 -p cbr -e 1000 -c 3 -i 14 -a 3 -x {2.0 5.1 14 ------- null}
h -t 0.212 -s 2 -d 3 -p cbr -e 1000 -c 3 -i 14 -a 3 -x {2.0 5.1 -1 ------- null}
r -t 0.213666666666667 -s 2 -d 3 -p cbr -e 1000 -c 3 -i 13 -a 3 -x {2.0 5.1 13 ------- null}
+ -t 0.213666666666667 -s 3 -d 5 -p cbr -e 1000 -c 3 -i 13 -a 3 -x {2.0 5.1 13 ------- null}
- -t 0.213666666666667 -s 3 -d 5 -p cbr -e 1000 -c 3 -i 13 -a 3 -x {2.0 5.1 13 ------- null}
h -t 0.213666666666667 -s 3 -d 5 -p cbr -e 1000 -c 3 -i 13 -a 3 -x {2.0 5.1 -1 ------- null}
r -t 0.219666666666667 -s 3 -d 5 -p cbr -e 1000 -c 3 -i 12 -a 3 -x {2.0 5.1 12 ------- null}
+ -t 0.22 -s 2 -d 3 -p cbr -e 1000 -c 3 -i 15 -a 3 -x {2.0 5.1 15 ------- null}
- -t 0.22 -s 2 -d 3 -p cbr -e 1000 -c 3 -i 15 -a 3 -x {2.0 5.1 15 ------- null}
h -t 0.22 -s 2 -d 3 -p cbr -e 1000 -c 3 -i 15 -a 3 -x {2.0 5.1 -1 ------- null}
r -t 0.221666666666667 -s 2 -d 3 -p cbr -e 1000 -c 3 -i 14 -a 3 -x {2.0 5.1 14 ------- null}
+ -t 0.221666666666667 -s 3 -d 5 -p cbr -e 1000 -c 3 -i 14 -a 3 -x {2.0 5.1 14 ------- null}
- -t 0.221666666666667 -s 3 -d 5 -p cbr -e 1000 -c 3 -i 14 -a 3 -x {2.0 5.1 14 ------- null}
h -t 0.221666666666667 -s 3 -d 5 -p cbr -e 1000 -c 3 -i 14 -a 3 -x {2.0 5.1 -1 ------- null}
r -t 0.227666666666667 -s 3 -d 5 -p cbr -e 1000 -c 3 -i 13 -a 3 -x {2.0 5.1 13 ------- null}
+ -t 0.228 -s 2 -d 3 -p cbr -e 1000 -c 3 -i 16 -a 3 -x {2.0 5.1 16 ------- null}
- -t 0.228 -s 2 -d 3 -p cbr -e 1000 -c 3 -i 16 -a 3 -x {2.0 5.1 16 ------- null}
h -t 0.228 -s 2 -d 3 -p cbr -e 1000 -c 3 -i 16 -a 3 -x {2.0 5.1 -1 ------- null}
r -t 0.229666666666667 -s 2 -d 3 -p cbr -e 1000 -c 3 -i 15 -a 3 -x {2.0 5.1 15 ------- null}
+ -t 0.229666666666667 -s 3 -d 5 -p cbr -e 1000 -c 3 -i 15 -a 3 -x {2.0 5.1 15 ------- null}
- -t 0.229666666666667 -s 3 -d 5 -p cbr -e 1000 -c 3 -i 15 -a 3 -x {2.0 5.1 15 ------- null}
h -t 0.229666666666667 -s 3 -d 5 -p cbr -e 1000 -c 3 -i 15 -a 3 -x {2.0 5.1 -1 ------- null}
r -t 0.235666666666667 -s 3 -d 5 -p cbr -e 1000 -c 3 -i 14 -a 3 -x {2.0 5.1 14 ------- null}
+ -t 0.236 -s 2 -d 3 -p cbr -e 1000 -c 3 -i 17 -a 3 -x {2.0 5.1 17 ------- null}
- -t 0.236 -s 2 -d 3 -p cbr -e 1000 -c 3 -i 17 -a 3 -x {2.0 5.1 17 ------- null}
h -t 0.236 -s 2 -d 3 -p cbr -e 1000 -c 3 -i 17 -a 3 -x {2.0 5.1 -1 ------- null}
r -t 0.237666666666667 -s 2 -d 3 -p cbr -e 1000 -c 3 -i 16 -a 3 -x {2.0 5.1 16 ------- null}
+ -t 0.237666666666667 -s 3 -d 5 -p cbr -e 1000 -c 3 -i 16 -a 3 -x {2.0 5.1 16 ------- null}
- -t 0.237666666666667 -s 3 -d 5 -p cbr -e 1000 -c 3 -i 16 -a 3 -x {2.0 5.1 16 ------- null}
h -t 0.237666666666667 -s 3 -d 5 -p cbr -e 1000 -c 3 -i 16 -a 3 -x {2.0 5.1 -1 ------- null}
r -t 0.243666666666667 -s 3 -d 5 -p cbr -e 1000 -c 3 -i 15 -a 3 -x {2.0 5.1 15 ------- null}
+ -t 0.244 -s 2 -d 3 -p cbr -e 1000 -c 3 -i 18 -a 3 -x {2.0 5.1 18 ------- null}
- -t 0.244 -s 2 -d 3 -p cbr -e 1000 -c 3 -i 18 -a 3 -x {2.0 5.1 18 ------- null}
h -t 0.244 -s 2 -d 3 -p cbr -e 1000 -c 3 -i 18 -a 3 -x {2.0 5.1 -1 ------- null}
r -t 0.245666666666667 -s 2 -d 3 -p cbr -e 1000 -c 3 -i 17 -a 3 -x {2.0 5.1 17 ------- null}
+ -t 0.245666666666667 -s 3 -d 5 -p cbr -e 1000 -c 3 -i 17 -a 3 -x {2.0 5.1 17 ------- null}
- -t 0.245666666666667 -s 3 -d 5 -p cbr -e 1000 -c 3 -i 17 -a 3 -x {2.0 5.1 17 ------- null}
h -t 0.245666666666667 -s 3 -d 5 -p cbr -e 1000 -c 3 -i 17 -a 3 -x {2.0 5.1 -1 ------- null}
r -t 0.251666666666667 -s 3 -d 5 -p cbr -e 1000 -c 3 -i 16 -a 3 -x {2.0 5.1 16 ------- null}
+ -t 0.252 -s 2 -d 3 -p cbr -e 1000 -c 3 -i 19 -a 3 -x {2.0 5.1 19 ------- null}
- -t 0.252 -s 2 -d 3 -p cbr -e 1000 -c 3 -i 19 -a 3 -x {2.0 5.1 19 ------- null}
h -t 0.252 -s 2 -d 3 -p cbr -e 1000 -c 3 -i 19 -a 3 -x {2.0 5.1 -1 ------- null}
r -t 0.253666666666667 -s 2 -d 3 -p cbr -e 1000 -c 3 -i 18 -a 3 -x {2.0 5.1 18 ------- null}
+ -t 0.253666666666667 -s 3 -d 5 -p cbr -e 1000 -c 3 -i 18 -a 3 -x {2.0 5.1 18 ------- null}
- -t 0.253666666666667 -s 3 -d 5 -p cbr -e 1000 -c 3 -i 18 -a 3 -x {2.0 5.1 18 ------- null}
h -t 0.253666666666667 -s 3 -d 5 -p cbr -e 1000 -c 3 -i 18 -a 3 -x {2.0 5.1 -1 ------- null}
r -t 0.259666666666667 -s 3 -d 5 -p cbr -e 1000 -c 3 -i 17 -a 3 -x {2.0 5.1 17 ------- null}
+ -t 0.26 -s 2 -d 3 -p cbr -e 1000 -c 3 -i 20 -a 3 -x {2.0 5.1 20 ------- null}
- -t 0.26 -s 2 -d 3 -p cbr -e 1000 -c 3 -i 20 -a 3 -x {2.0 5.1 20 ------- null}
h -t 0.26 -s 2 -d 3 -p cbr -e 1000 -c 3 -i 20 -a 3 -x {2.0 5.1 -1 ------- null}
r -t 0.261666666666667 -s 2 -d 3 -p cbr -e 1000 -c 3 -i 19 -a 3 -x {2.0 5.1 19 ------- null}
+ -t 0.261666666666667 -s 3 -d 5 -p cbr -e 1000 -c 3 -i 19 -a 3 -x {2.0 5.1 19 ------- null}
- -t 0.261666666666667 -s 3 -d 5 -p cbr -e 1000 -c 3 -i 19 -a 3 -x {2.0 5.1 19 ------- null}
h -t 0.261666666666667 -s 3 -d 5 -p cbr -e 1000 -c 3 -i 19 -a 3 -x {2.0 5.1 -1 ------- null}
r -t 0.267666666666667 -s 3 -d 5 -p cbr -e 1000 -c 3 -i 18 -a 3 -x {2.0 5.1 18 ------- null}
+ -t 0.268 -s 2 -d 3 -p cbr -e 1000 -c 3 -i 21 -a 3 -x {2.0 5.1 21 ------- null}
- -t 0.268 -s 2 -d 3 -p cbr -e 1000 -c 3 -i 21 -a 3 -x {2.0 5.1 21 ------- null}
h -t 0.268 -s 2 -d 3 -p cbr -e 1000 -c 3 -i 21 -a 3 -x {2.0 5.1 -1 ------- null}
r -t 0.269666666666667 -s 2 -d 3 -p cbr -e 1000 -c 3 -i 20 -a 3 -x {2.0 5.1 20 ------- null}
+ -t 0.269666666666667 -s 3 -d 5 -p cbr -e 1000 -c 3 -i 20 -a 3 -x {2.0 5.1 20 ------- null}
- -t 0.269666666666667 -s 3 -d 5 -p cbr -e 1000 -c 3 -i 20 -a 3 -x {2.0 5.1 20 ------- null}
h -t 0.269666666666667 -s 3 -d 5 -p cbr -e 1000 -c 3 -i 20 -a 3 -x {2.0 5.1 -1 ------- null}
r -t 0.275666666666667 -s 3 -d 5 -p cbr -e 1000 -c 3 -i 19 -a 3 -x {2.0 5.1 19 ------- null}
+ -t 0.276 -s 2 -d 3 -p cbr -e 1000 -c 3 -i 22 -a 3 -x {2.0 5.1 22 ------- null}
- -t 0.276 -s 2 -d 3 -p cbr -e 1000 -c 3 -i 22 -a 3 -x {2.0 5.1 22 ------- null}
h -t 0.276 -s 2 -d 3 -p cbr -e 1000 -c 3 -i 22 -a 3 -x {2.0 5.1 -1 ------- null}
r -t 0.277666666666667 -s 2 -d 3 -p cbr -e 1000 -c 3 -i 21 -a 3 -x {2.0 5.1 21 ------- null}
+ -t 0.277666666666667 -s 3 -d 5 -p cbr -e 1000 -c 3 -i 21 -a 3 -x {2.0 5.1 21 ------- null}
- -t 0.277666666666667 -s 3 -d 5 -p cbr -e 1000 -c 3 -i 21 -a 3 -x {2.0 5.1 21 ------- null}
h -t 0.277666666666667 -s 3 -d 5 -p cbr -e 1000 -c 3 -i 21 -a 3 -x {2.0 5.1 -1 ------- null}
r -t 0.283666666666667 -s 3 -d 5 -p cbr -e 1000 -c 3 -i 20 -a 3 -x {2.0 5.1 20 ------- null}
+ -t 0.284 -s 2 -d 3 -p cbr -e 1000 -c 3 -i 23 -a 3 -x {2.0 5.1 23 ------- null}
- -t 0.284 -s 2 -d 3 -p cbr -e 1000 -c 3 -i 23 -a 3 -x {2.0 5.1 23 ------- null}
h -t 0.284 -s 2 -d 3 -p cbr -e 1000 -c 3 -i 23 -a 3 -x {2.0 5.1 -1 ------- null}
r -t 0.285666666666667 -s 2 -d 3 -p cbr -e 1000 -c 3 -i 22 -a 3 -x {2.0 5.1 22 ------- null}
+ -t 0.285666666666667 -s 3 -d 5 -p cbr -e 1000 -c 3 -i 22 -a 3 -x {2.0 5.1 22 ------- null}
- -t 0.285666666666667 -s 3 -d 5 -p cbr -e 1000 -c 3 -i 22 -a 3 -x {2.0 5.1 22 ------- null}
h -t 0.285666666666667 -s 3 -d 5 -p cbr -e 1000 -c 3 -i 22 -a 3 -x {2.0 5.1 -1 ------- null}
r -t 0.291666666666667 -s 3 -d 5 -p cbr -e 1000 -c 3 -i 21 -a 3 -x {2.0 5.1 21 ------- null}
+ -t 0.292 -s 2 -d 3 -p cbr -e 1000 -c 3 -i 24 -a 3 -x {2.0 5.1 24 ------- null}
- -t 0.292 -s 2 -d 3 -p cbr -e 1000 -c 3 -i 24 -a 3 -x {2.0 5.1 24 ------- null}
h -t 0.292 -s 2 -d 3 -p cbr -e 1000 -c 3 -i 24 -a 3 -x {2.0 5.1 -1 ------- null}
r -t 0.293666666666667 -s 2 -d 3 -p cbr -e 1000 -c 3 -i 23 -a 3 -x {2.0 5.1 23 ------- null}
+ -t 0.293666666666667 -s 3 -d 5 -p cbr -e 1000 -c 3 -i 23 -a 3 -x {2.0 5.1 23 ------- null}
- -t 0.293666666666667 -s 3 -d 5 -p cbr -e 1000 -c 3 -i 23 -a 3 -x {2.0 5.1 23 ------- null}
h -t 0.293666666666667 -s 3 -d 5 -p cbr -e 1000 -c 3 -i 23 -a 3 -x {2.0 5.1 -1 ------- null}
r -t 0.299666666666667 -s 3 -d 5 -p cbr -e 1000 -c 3 -i 22 -a 3 -x {2.0 5.1 22 ------- null}
+ -t 0.3 -s 2 -d 3 -p cbr -e 1000 -c 3 -i 25 -a 3 -x {2.0 5.1 25 ------- null}
- -t 0.3 -s 2 -d 3 -p cbr -e 1000 -c 3 -i 25 -a 3 -x {2.0 5.1 25 ------- null}
h -t 0.3 -s 2 -d 3 -p cbr -e 1000 -c 3 -i 25 -a 3 -x {2.0 5.1 -1 ------- null}
r -t 0.301666666666667 -s 2 -d 3 -p cbr -e 1000 -c 3 -i 24 -a 3 -x {2.0 5.1 24 ------- null}
+ -t 0.301666666666667 -s 3 -d 5 -p cbr -e 1000 -c 3 -i 24 -a 3 -x {2.0 5.1 24 ------- null}
- -t 0.301666666666667 -s 3 -d 5 -p cbr -e 1000 -c 3 -i 24 -a 3 -x {2.0 5.1 24 ------- null}
h -t 0.301666666666667 -s 3 -d 5 -p cbr -e 1000 -c 3 -i 24 -a 3 -x {2.0 5.1 -1 ------- null}
r -t 0.307666666666667 -s 3 -d 5 -p cbr -e 1000 -c 3 -i 23 -a 3 -x {2.0 5.1 23 ------- null}
+ -t 0.308 -s 2 -d 3 -p cbr -e 1000 -c 3 -i 26 -a 3 -x {2.0 5.1 26 ------- null}
- -t 0.308 -s 2 -d 3 -p cbr -e 1000 -c 3 -i 26 -a 3 -x {2.0 5.1 26 ------- null}
h -t 0.308 -s 2 -d 3 -p cbr -e 1000 -c 3 -i 26 -a 3 -x {2.0 5.1 -1 ------- null}
r -t 0.309666666666667 -s 2 -d 3 -p cbr -e 1000 -c 3 -i 25 -a 3 -x {2.0 5.1 25 ------- null}
+ -t 0.309666666666667 -s 3 -d 5 -p cbr -e 1000 -c 3 -i 25 -a 3 -x {2.0 5.1 25 ------- null}
- -t 0.309666666666667 -s 3 -d 5 -p cbr -e 1000 -c 3 -i 25 -a 3 -x {2.0 5.1 25 ------- null}
h -t 0.309666666666667 -s 3 -d 5 -p cbr -e 1000 -c 3 -i 25 -a 3 -x {2.0 5.1 -1 ------- null}
r -t 0.315666666666667 -s 3 -d 5 -p cbr -e 1000 -c 3 -i 24 -a 3 -x {2.0 5.1 24 ------- null}
+ -t 0.316 -s 2 -d 3 -p cbr -e 1000 -c 3 -i 27 -a 3 -x {2.0 5.1 27 ------- null}
- -t 0.316 -s 2 -d 3 -p cbr -e 1000 -c 3 -i 27 -a 3 -x {2.0 5.1 27 ------- null}
h -t 0.316 -s 2 -d 3 -p cbr -e 1000 -c 3 -i 27 -a 3 -x {2.0 5.1 -1 ------- null}
r -t 0.317666666666667 -s 2 -d 3 -p cbr -e 1000 -c 3 -i 26 -a 3 -x {2.0 5.1 26 ------- null}
+ -t 0.317666666666667 -s 3 -d 5 -p cbr -e 1000 -c 3 -i 26 -a 3 -x {2.0 5.1 26 ------- null}
- -t 0.317666666666667 -s 3 -d 5 -p cbr -e 1000 -c 3 -i 26 -a 3 -x {2.0 5.1 26 ------- null}
h -t 0.317666666666667 -s 3 -d 5 -p cbr -e 1000 -c 3 -i 26 -a 3 -x {2.0 5.1 -1 ------- null}
r -t 0.323666666666667 -s 3 -d 5 -p cbr -e 1000 -c 3 -i 25 -a 3 -x {2.0 5.1 25 ------- null}
+ -t 0.324 -s 2 -d 3 -p cbr -e 1000 -c 3 -i 28 -a 3 -x {2.0 5.1 28 ------- null}
- -t 0.324 -s 2 -d 3 -p cbr -e 1000 -c 3 -i 28 -a 3 -x {2.0 5.1 28 ------- null}
h -t 0.324 -s 2 -d 3 -p cbr -e 1000 -c 3 -i 28 -a 3 -x {2.0 5.1 -1 ------- null}
r -t 0.325666666666667 -s 2 -d 3 -p cbr -e 1000 -c 3 -i 27 -a 3 -x {2.0 5.1 27 ------- null}
+ -t 0.325666666666667 -s 3 -d 5 -p cbr -e 1000 -c 3 -i 27 -a 3 -x {2.0 5.1 27 ------- null}
- -t 0.325666666666667 -s 3 -d 5 -p cbr -e 1000 -c 3 -i 27 -a 3 -x {2.0 5.1 27 ------- null}
h -t 0.325666666666667 -s 3 -d 5 -p cbr -e 1000 -c 3 -i 27 -a 3 -x {2.0 5.1 -1 ------- null}
r -t 0.331666666666667 -s 3 -d 5 -p cbr -e 1000 -c 3 -i 26 -a 3 -x {2.0 5.1 26 ------- null}
+ -t 0.332 -s 2 -d 3 -p cbr -e 1000 -c 3 -i 29 -a 3 -x {2.0 5.1 29 ------- null}
- -t 0.332 -s 2 -d 3 -p cbr -e 1000 -c 3 -i 29 -a 3 -x {2.0 5.1 29 ------- null}
h -t 0.332 -s 2 -d 3 -p cbr -e 1000 -c 3 -i 29 -a 3 -x {2.0 5.1 -1 ------- null}
r -t 0.333666666666667 -s 2 -d 3 -p cbr -e 1000 -c 3 -i 28 -a 3 -x {2.0 5.1 28 ------- null}
+ -t 0.333666666666667 -s 3 -d 5 -p cbr -e 1000 -c 3 -i 28 -a 3 -x {2.0 5.1 28 ------- null}
- -t 0.333666666666667 -s 3 -d 5 -p cbr -e 1000 -c 3 -i 28 -a 3 -x {2.0 5.1 28 ------- null}
h -t 0.333666666666667 -s 3 -d 5 -p cbr -e 1000 -c 3 -i 28 -a 3 -x {2.0 5.1 -1 ------- null}
r -t 0.339666666666667 -s 3 -d 5 -p cbr -e 1000 -c 3 -i 27 -a 3 -x {2.0 5.1 27 ------- null}
+ -t 0.34 -s 2 -d 3 -p cbr -e 1000 -c 3 -i 30 -a 3 -x {2.0 5.1 30 ------- null}
- -t 0.34 -s 2 -d 3 -p cbr -e 1000 -c 3 -i 30 -a 3 -x {2.0 5.1 30 ------- null}
h -t 0.34 -s 2 -d 3 -p cbr -e 1000 -c 3 -i 30 -a 3 -x {2.0 5.1 -1 ------- null}
r -t 0.341666666666667 -s 2 -d 3 -p cbr -e 1000 -c 3 -i 29 -a 3 -x {2.0 5.1 29 ------- null}
+ -t 0.341666666666667 -s 3 -d 5 -p cbr -e 1000 -c 3 -i 29 -a 3 -x {2.0 5.1 29 ------- null}
- -t 0.341666666666667 -s 3 -d 5 -p cbr -e 1000 -c 3 -i 29 -a 3 -x {2.0 5.1 29 ------- null}
h -t 0.341666666666667 -s 3 -d 5 -p cbr -e 1000 -c 3 -i 29 -a 3 -x {2.0 5.1 -1 ------- null}
r -t 0.347666666666667 -s 3 -d 5 -p cbr -e 1000 -c 3 -i 28 -a 3 -x {2.0 5.1 28 ------- null}
+ -t 0.348 -s 2 -d 3 -p cbr -e 1000 -c 3 -i 31 -a 3 -x {2.0 5.1 31 ------- null}
- -t 0.348 -s 2 -d 3 -p cbr -e 1000 -c 3 -i 31 -a 3 -x {2.0 5.1 31 ------- null}
h -t 0.348 -s 2 -d 3 -p cbr -e 1000 -c 3 -i 31 -a 3 -x {2.0 5.1 -1 ------- null}
r -t 0.349666666666667 -s 2 -d 3 -p cbr -e 1000 -c 3 -i 30 -a 3 -x {2.0 5.1 30 ------- null}
+ -t 0.349666666666667 -s 3 -d 5 -p cbr -e 1000 -c 3 -i 30 -a 3 -x {2.0 5.1 30 ------- null}
- -t 0.349666666666667 -s 3 -d 5 -p cbr -e 1000 -c 3 -i 30 -a 3 -x {2.0 5.1 30 ------- null}
h -t 0.349666666666667 -s 3 -d 5 -p cbr -e 1000 -c 3 -i 30 -a 3 -x {2.0 5.1 -1 ------- null}
r -t 0.355666666666667 -s 3 -d 5 -p cbr -e 1000 -c 3 -i 29 -a 3 -x {2.0 5.1 29 ------- null}
+ -t 0.356 -s 2 -d 3 -p cbr -e 1000 -c 3 -i 32 -a 3 -x {2.0 5.1 32 ------- null}
- -t 0.356 -s 2 -d 3 -p cbr -e 1000 -c 3 -i 32 -a 3 -x {2.0 5.1 32 ------- null}
h -t 0.356 -s 2 -d 3 -p cbr -e 1000 -c 3 -i 32 -a 3 -x {2.0 5.1 -1 ------- null}
r -t 0.357666666666667 -s 2 -d 3 -p cbr -e 1000 -c 3 -i 31 -a 3 -x {2.0 5.1 31 ------- null}
+ -t 0.357666666666667 -s 3 -d 5 -p cbr -e 1000 -c 3 -i 31 -a 3 -x {2.0 5.1 31 ------- null}
- -t 0.357666666666667 -s 3 -d 5 -p cbr -e 1000 -c 3 -i 31 -a 3 -x {2.0 5.1 31 ------- null}
h -t 0.357666666666667 -s 3 -d 5 -p cbr -e 1000 -c 3 -i 31 -a 3 -x {2.0 5.1 -1 ------- null}
r -t 0.363666666666667 -s 3 -d 5 -p cbr -e 1000 -c 3 -i 30 -a 3 -x {2.0 5.1 30 ------- null}
+ -t 0.364 -s 2 -d 3 -p cbr -e 1000 -c 3 -i 33 -a 3 -x {2.0 5.1 33 ------- null}
- -t 0.364 -s 2 -d 3 -p cbr -e 1000 -c 3 -i 33 -a 3 -x {2.0 5.1 33 ------- null}
h -t 0.364 -s 2 -d 3 -p cbr -e 1000 -c 3 -i 33 -a 3 -x {2.0 5.1 -1 ------- null}
r -t 0.365666666666667 -s 2 -d 3 -p cbr -e 1000 -c 3 -i 32 -a 3 -x {2.0 5.1 32 ------- null}
+ -t 0.365666666666667 -s 3 -d 5 -p cbr -e 1000 -c 3 -i 32 -a 3 -x {2.0 5.1 32 ------- null}
- -t 0.365666666666667 -s 3 -d 5 -p cbr -e 1000 -c 3 -i 32 -a 3 -x {2.0 5.1 32 ------- null}
h -t 0.365666666666667 -s 3 -d 5 -p cbr -e 1000 -c 3 -i 32 -a 3 -x {2.0 5.1 -1 ------- null}
r -t 0.371666666666667 -s 3 -d 5 -p cbr -e 1000 -c 3 -i 31 -a 3 -x {2.0 5.1 31 ------- null}
+ -t 0.372 -s 2 -d 3 -p cbr -e 1000 -c 3 -i 34 -a 3 -x {2.0 5.1 34 ------- null}
- -t 0.372 -s 2 -d 3 -p cbr -e 1000 -c 3 -i 34 -a 3 -x {2.0 5.1 34 ------- null}
h -t 0.372 -s 2 -d 3 -p cbr -e 1000 -c 3 -i 34 -a 3 -x {2.0 5.1 -1 ------- null}
r -t 0.373666666666667 -s 2 -d 3 -p cbr -e 1000 -c 3 -i 33 -a 3 -x {2.0 5.1 33 ------- null}
+ -t 0.373666666666667 -s 3 -d 5 -p cbr -e 1000 -c 3 -i 33 -a 3 -x {2.0 5.1 33 ------- null}
- -t 0.373666666666667 -s 3 -d 5 -p cbr -e 1000 -c 3 -i 33 -a 3 -x {2.0 5.1 33 ------- null}
h -t 0.373666666666667 -s 3 -d 5 -p cbr -e 1000 -c 3 -i 33 -a 3 -x {2.0 5.1 -1 ------- null}
r -t 0.379666666666667 -s 3 -d 5 -p cbr -e 1000 -c 3 -i 32 -a 3 -x {2.0 5.1 32 ------- null}
+ -t 0.38 -s 2 -d 3 -p cbr -e 1000 -c 3 -i 35 -a 3 -x {2.0 5.1 35 ------- null}
- -t 0.38 -s 2 -d 3 -p cbr -e 1000 -c 3 -i 35 -a 3 -x {2.0 5.1 35 ------- null}
h -t 0.38 -s 2 -d 3 -p cbr -e 1000 -c 3 -i 35 -a 3 -x {2.0 5.1 -1 ------- null}
r -t 0.381666666666667 -s 2 -d 3 -p cbr -e 1000 -c 3 -i 34 -a 3 -x {2.0 5.1 34 ------- null}
+ -t 0.381666666666667 -s 3 -d 5 -p cbr -e 1000 -c 3 -i 34 -a 3 -x {2.0 5.1 34 ------- null}
- -t 0.381666666666667 -s 3 -d 5 -p cbr -e 1000 -c 3 -i 34 -a 3 -x {2.0 5.1 34 ------- null}
h -t 0.381666666666667 -s 3 -d 5 -p cbr -e 1000 -c 3 -i 34 -a 3 -x {2.0 5.1 -1 ------- null}
r -t 0.387666666666667 -s 3 -d 5 -p cbr -e 1000 -c 3 -i 33 -a 3 -x {2.0 5.1 33 ------- null}
+ -t 0.388 -s 2 -d 3 -p cbr -e 1000 -c 3 -i 36 -a 3 -x {2.0 5.1 36 ------- null}
- -t 0.388 -s 2 -d 3 -p cbr -e 1000 -c 3 -i 36 -a 3 -x {2.0 5.1 36 ------- null}
h -t 0.388 -s 2 -d 3 -p cbr -e 1000 -c 3 -i 36 -a 3 -x {2.0 5.1 -1 ------- null}
r -t 0.389666666666667 -s 2 -d 3 -p cbr -e 1000 -c 3 -i 35 -a 3 -x {2.0 5.1 35 ------- null}
+ -t 0.389666666666667 -s 3 -d 5 -p cbr -e 1000 -c 3 -i 35 -a 3 -x {2.0 5.1 35 ------- null}
- -t 0.389666666666667 -s 3 -d 5 -p cbr -e 1000 -c 3 -i 35 -a 3 -x {2.0 5.1 35 ------- null}
h -t 0.389666666666667 -s 3 -d 5 -p cbr -e 1000 -c 3 -i 35 -a 3 -x {2.0 5.1 -1 ------- null}
r -t 0.395666666666667 -s 3 -d 5 -p cbr -e 1000 -c 3 -i 34 -a 3 -x {2.0 5.1 34 ------- null}
+ -t 0.396 -s 2 -d 3 -p cbr -e 1000 -c 3 -i 37 -a 3 -x {2.0 5.1 37 ------- null}
- -t 0.396 -s 2 -d 3 -p cbr -e 1000 -c 3 -i 37 -a 3 -x {2.0 5.1 37 ------- null}
h -t 0.396 -s 2 -d 3 -p cbr -e 1000 -c 3 -i 37 -a 3 -x {2.0 5.1 -1 ------- null}
r -t 0.397666666666667 -s 2 -d 3 -p cbr -e 1000 -c 3 -i 36 -a 3 -x {2.0 5.1 36 ------- null}
+ -t 0.397666666666667 -s 3 -d 5 -p cbr -e 1000 -c 3 -i 36 -a 3 -x {2.0 5.1 36 ------- null}
- -t 0.397666666666667 -s 3 -d 5 -p cbr -e 1000 -c 3 -i 36 -a 3 -x {2.0 5.1 36 ------- null}
h -t 0.397666666666667 -s 3 -d 5 -p cbr -e 1000 -c 3 -i 36 -a 3 -x {2.0 5.1 -1 ------- null}
r -t 0.403666666666667 -s 3 -d 5 -p cbr -e 1000 -c 3 -i 35 -a 3 -x {2.0 5.1 35 ------- null}
+ -t 0.404 -s 2 -d 3 -p cbr -e 1000 -c 3 -i 38 -a 3 -x {2.0 5.1 38 ------- null}
- -t 0.404 -s 2 -d 3 -p cbr -e 1000 -c 3 -i 38 -a 3 -x {2.0 5.1 38 ------- null}
h -t 0.404 -s 2 -d 3 -p cbr -e 1000 -c 3 -i 38 -a 3 -x {2.0 5.1 -1 ------- null}
r -t 0.405666666666667 -s 2 -d 3 -p cbr -e 1000 -c 3 -i 37 -a 3 -x {2.0 5.1 37 ------- null}
+ -t 0.405666666666667 -s 3 -d 5 -p cbr -e 1000 -c 3 -i 37 -a 3 -x {2.0 5.1 37 ------- null}
- -t 0.405666666666667 -s 3 -d 5 -p cbr -e 1000 -c 3 -i 37 -a 3 -x {2.0 5.1 37 ------- null}
h -t 0.405666666666667 -s 3 -d 5 -p cbr -e 1000 -c 3 -i 37 -a 3 -x {2.0 5.1 -1 ------- null}
r -t 0.411666666666667 -s 3 -d 5 -p cbr -e 1000 -c 3 -i 36 -a 3 -x {2.0 5.1 36 ------- null}
+ -t 0.412 -s 2 -d 3 -p cbr -e 1000 -c 3 -i 39 -a 3 -x {2.0 5.1 39 ------- null}
- -t 0.412 -s 2 -d 3 -p cbr -e 1000 -c 3 -i 39 -a 3 -x {2.0 5.1 39 ------- null}
h -t 0.412 -s 2 -d 3 -p cbr -e 1000 -c 3 -i 39 -a 3 -x {2.0 5.1 -1 ------- null}
r -t 0.413666666666667 -s 2 -d 3 -p cbr -e 1000 -c 3 -i 38 -a 3 -x {2.0 5.1 38 ------- null}
+ -t 0.413666666666667 -s 3 -d 5 -p cbr -e 1000 -c 3 -i 38 -a 3 -x {2.0 5.1 38 ------- null}
- -t 0.413666666666667 -s 3 -d 5 -p cbr -e 1000 -c 3 -i 38 -a 3 -x {2.0 5.1 38 ------- null}
h -t 0.413666666666667 -s 3 -d 5 -p cbr -e 1000 -c 3 -i 38 -a 3 -x {2.0 5.1 -1 ------- null}
r -t 0.419666666666667 -s 3 -d 5 -p cbr -e 1000 -c 3 -i 37 -a 3 -x {2.0 5.1 37 ------- null}
+ -t 0.42 -s 2 -d 3 -p cbr -e 1000 -c 3 -i 40 -a 3 -x {2.0 5.1 40 ------- null}
- -t 0.42 -s 2 -d 3 -p cbr -e 1000 -c 3 -i 40 -a 3 -x {2.0 5.1 40 ------- null}
h -t 0.42 -s 2 -d 3 -p cbr -e 1000 -c 3 -i 40 -a 3 -x {2.0 5.1 -1 ------- null}
r -t 0.421666666666667 -s 2 -d 3 -p cbr -e 1000 -c 3 -i 39 -a 3 -x {2.0 5.1 39 ------- null}
+ -t 0.421666666666667 -s 3 -d 5 -p cbr -e 1000 -c 3 -i 39 -a 3 -x {2.0 5.1 39 ------- null}
- -t 0.421666666666667 -s 3 -d 5 -p cbr -e 1000 -c 3 -i 39 -a 3 -x {2.0 5.1 39 ------- null}
h -t 0.421666666666667 -s 3 -d 5 -p cbr -e 1000 -c 3 -i 39 -a 3 -x {2.0 5.1 -1 ------- null}
r -t 0.427666666666667 -s 3 -d 5 -p cbr -e 1000 -c 3 -i 38 -a 3 -x {2.0 5.1 38 ------- null}
+ -t 0.428 -s 2 -d 3 -p cbr -e 1000 -c 3 -i 41 -a 3 -x {2.0 5.1 41 ------- null}
- -t 0.428 -s 2 -d 3 -p cbr -e 1000 -c 3 -i 41 -a 3 -x {2.0 5.1 41 ------- null}
h -t 0.428 -s 2 -d 3 -p cbr -e 1000 -c 3 -i 41 -a 3 -x {2.0 5.1 -1 ------- null}
r -t 0.429666666666667 -s 2 -d 3 -p cbr -e 1000 -c 3 -i 40 -a 3 -x {2.0 5.1 40 ------- null}
+ -t 0.429666666666667 -s 3 -d 5 -p cbr -e 1000 -c 3 -i 40 -a 3 -x {2.0 5.1 40 ------- null}
- -t 0.429666666666667 -s 3 -d 5 -p cbr -e 1000 -c 3 -i 40 -a 3 -x {2.0 5.1 40 ------- null}
h -t 0.429666666666667 -s 3 -d 5 -p cbr -e 1000 -c 3 -i 40 -a 3 -x {2.0 5.1 -1 ------- null}
r -t 0.435666666666667 -s 3 -d 5 -p cbr -e 1000 -c 3 -i 39 -a 3 -x {2.0 5.1 39 ------- null}