+ 0.1 2 3 cbr 1000 ------- 3 2.0 5.1 0 0
- 0.1 2 3 cbr 1000 ------- 3 2.0 5.1 0 0
+ 0.108 2 3 cbr 1000 ------- 3 2.0 5.1 1 1
- 0.108 2 3 cbr 1000 ------- 3 2.0 5.1 1 1
r 0.109667 2 3 cbr 1000 ------- 3 2.0 5.1 0 0
+ 0.109667 3 5 cbr 1000 ------- 3 2.0 5.1 0 0
- 0.109667 3 5 cbr 1000 ------- 3 2.0 5.1 0 0
+ 0.116 2 3 cbr 1000 ------- 3 2.0 5.1 2 2
- 0.116 2 3 cbr 1000 ------- 3 2.0 5.1 2 2
r 0.117667 2 3 cbr 1000 ------- 3 2.0 5.1 1 1
+ 0.117667 3 5 cbr 1000 ------- 3 2.0 5.1 1 1
- 0.117667 3 5 cbr 1000 ------- 3 2.0 5.1 1 1
r 0.123667 3 5 cbr 1000 ------- 3 2.0 5.1 0 0
+ 0.124 2 3 cbr 1000 ------- 3 2.0 5.1 3 3
- 0.124 2 3 cbr 1000 ------- 3 2.0 5.1 3 3
r 0.125667 2 3 cbr 1000 ------- 3 2.0 5.1 2 2
+ 0.125667 3 5 cbr 1000 ------- 3 2.0 5.1 2 2
- 0.125667 3 5 cbr 1000 ------- 3 2.0 5.1 2 2
r 0.131667 3 5 cbr 1000 ------- 3 2.0 5.1 1 1
+ 0.132 2 3 cbr 1000 ------- 3 2.0 5.1 4 4
- 0.132 2 3 cbr 1000 ------- 3 2.0 5.1 4 4
r 0.133667 2 3 cbr 1000 ------- 3 2.0 5.1 3 3
+ 0.133667 3 5 cbr 1000 ------- 3 2.0 5.1 3 3
- 0.133667 3 5 cbr 1000 ------- 3 2.0 5.1 3 3
r 0.139667 3 5 cbr 1000 ------- 3 2.0 5.1 2 2
+ 0.14 2 3 cbr 1000 ------- 3 2.0 5.1 5 5
- 0.14 2 3 cbr 1000 ------- 3 2.0 5.1 5 5
r 0.141667 2 3 cbr 1000 ------- 3 2.0 5.1 4 4
+ 0.141667 3 5 cbr 1000 ------- 3 2.0 5.1 4 4
- 0.141667 3 5 cbr 1000 ------- 3 2.0 5.1 4 4
r 0.147667 3 5 cbr 1000 ------- 3 2.0 5.1 3 3
+ 0.148 2 3 cbr 1000 ------- 3 2.0 5.1 6 6
- 0.148 2 3 cbr 1000 ------- 3 2.0 5.1 6 6
r 0.149667 2 3 cbr 1000 ------- 3 2.0 5.1 5 5
+ 0.149667 3 5 cbr 1000 ------- 3 2.0 5.1 5 5
- 0.149667 3 5 cbr 1000 ------- 3 2.0 5.1 5 5
r 0.155667 3 5 cbr 1000 ------- 3 2.0 5.1 4 4
+ 0.156 2 3 cbr 1000 ------- 3 2.0 5.1 7 7
- 0.156 2 3 cbr 1000 ------- 3 2.0 5.1 7 7
r 0.157667 2 3 cbr 1000 ------- 3 2.0 5.1 6 6
+ 0.157667 3 5 cbr 1000 ------- 3 2.0 5.1 6 6
- 0.157667 3 5 cbr 1000 ------- 3 2.0 5.1 6 6
r 0.163667 3 5 cbr 1000 ------- 3 2.0 5.1 5 5
+ 0.164 2 3 cbr 1000 ------- 3 2.0 5.1 8 8
- 0.164 2 3 cbr 1000 ------- 3 2.0 5.1 8 8
r 0.165667 2 3 cbr 1000 ------- 3 2.0 5.1 7 7
+ 0.165667 3 5 cbr 1000 ------- 3 2.0 5.1 7 7
- 0.165667 3 5 cbr 1000 ------- 3 2.0 5.1 7 7
r 0.171667 3 5 cbr 1000 ------- 3 2.0 5.1 6 6
+ 0.172 2 3 cbr 1000 ------- 3 2.0 5.1 9 9
- 0.172 2 3 cbr 1000 ------- 3 2.0 5.1 9 9
r 0.173667 2 3 cbr 1000 ------- 3 2.0 5.1 8 8
+ 0.173667 3 5 cbr 1000 ------- 3 2.0 5.1 8 8
- 0.173667 3 5 cbr 1000 ------- 3 2.0 5.1 8 8
r 0.179667 3 5 cbr 1000 ------- 3 2.0 5.1 7 7
+ 0.18 2 3 cbr 1000 ------- 3 2.0 5.1 10 10
- 0.18 2 3 cbr 1000 ------- 3 2.0 5.1 10 10
r 0.181667 2 3 cbr 1000 ------- 3 2.0 5.1 9 9
+ 0.181667 3 5 cbr 1000 ------- 3 2.0 5.1 9 9
- 0.181667 3 5 cbr 1000 ------- 3 2.0 5.1 9 9
r 0.187667 3 5 cbr 1000 ------- 3 2.0 5.1 8 8
+ 0.188 2 3 cbr 1000 ------- 3 2.0 5.1 11 11
- 0.188 2 3 cbr 1000 ------- 3 2.0 5.1 11 11
r 0.189667 2 3 cbr 1000 ------- 3 2.0 5.1 10 10
+ 0.189667 3 5 cbr 1000 ------- 3 2.0 5.1 10 10
- 0.189667 3 5 cbr 1000 ------- 3 2.0 5.1 10 10
r 0.195667 3 5 cbr 1000 ------- 3 2.0 5.1 9 9
+ 0.196 2 3 cbr 1000 ------- 3 2.0 5.1 12 12
- 0.196 2 3 cbr 1000 ------- 3 2.0 5.1 12 12
r 0.197667 2 3 cbr 1000 ------- 3 2.0 5.1 11 11
+ 0.197667 3 5 cbr 1000 ------- 3 2.0 5.1 11 11
- 0.197667 3 5 cbr 1000 ------- 3 2.0 5.1 11 11
r 0.203667 3 5 cbr 1000 ------- 3 2.0 5.1 10 10
+ 0.204 2 3 cbr 1000 ------- 3 2.0 5.1 13 13
- 0.204 2 3 cbr 1000 ------- 3 2.0 5.1 13 13
r 0.205667 2 3 cbr 1000 ------- 3 2.0 5.1 12 12
+ 0.205667 3 5 cbr 1000 ------- 3 2.0 5.1 12 12
- 0.205667 3 5 cbr 1000 ------- 3 2.0 5.1 12 12
r 0.211667 3 5 cbr 1000 ------- 3 2.0 5.1 11 11
+ 0.212 2 3 cbr 1000 ------- 3 2.0 5.1 14 14
- 0.212 2 3 cbr 1000 ------- 3 2.0 5.1 14 14
r 0.213667 2 3 cbr 1000 ------- 3 2.0 5.1 13 13
+ 0.213667 3 5 cbr 1000 ------- 3 2.0 5.1 13 13
- 0.213667 3 5 cbr 1000 ------- 3 2.0 5.1 13 13
r 0.219667 3 5 cbr 1000 ------- 3 2.0 5.1 12 12
+ 0.22 2 3 cbr 1000 ------- 3 2.0 5.1 15 15
- 0.22 2 3 cbr 1000 ------- 3 2.0 5.1 15 15
r 0.221667 2 3 cbr 1000 ------- 3 2.0 5.1 14 14
+ 0.221667 3 5 cbr 1000 ------- 3 2.0 5.1 14 14
- 0.221667 3 5 cbr 1000 ------- 3 2.0 5.1 14 14
r 0.227667 3 5 cbr 1000 ------- 3 2.0 5.1 13 13
+ 0.228 2 3 cbr 1000 ------- 3 2.0 5.1 16 16
- 0.228 2 3 cbr 1000 ------- 3 2.0 5.1 16 16
r 0.229667 2 3 cbr 1000 ------- 3 2.0 5.1 15 15
+ 0.229667 3 5 cbr 1000 ------- 3 2.0 5.1 15 15
- 0.229667 3 5 cbr 1000 ------- 3 2.0 5.1 15 15
r 0.235667 3 5 cbr 1000 ------- 3 2.0 5.1 14 14
+ 0.236 2 3 cbr 1000 ------- 3 2.0 5.1 17 17
- 0.236 2 3 cbr 1000 ------- 3 2.0 5.1 17 17
r 0.237667 2 3 cbr 1000 ------- 3 2.0 5.1 16 16
+ 0.237667 3 5 cbr 1000 ------- 3 2.0 5.1 16 16
- 0.237667 3 5 cbr 1000 ------- 3 2.0 5.1 16 16
r 0.243667 3 5 cbr 1000 ------- 3 2.0 5.1 15 15
+ 0.244 2 3 cbr 1000 ------- 3 2.0 5.1 18 18
- 0.244 2 3 cbr 1000 ------- 3 2.0 5.1 18 18
r 0.245667 2 3 cbr 1000 ------- 3 2.0 5.1 17 17
+ 0.245667 3 5 cbr 1000 ------- 3 2.0 5.1 17 17
- 0.245667 3 5 cbr 1000 ------- 3 2.0 5.1 17 17
r 0.251667 3 5 cbr 1000 ------- 3 2.0 5.1 16 16
+ 0.252 2 3 cbr 1000 ------- 3 2.0 5.1 19 19
- 0.252 2 3 cbr 1000 ------- 3 2.0 5.1 19 19
r 0.253667 2 3 cbr 1000 ------- 3 2.0 5.1 18 18
+ 0.253667 3 5 cbr 1000 ------- 3 2.0 5.1 18 18
- 0.253667 3 5 cbr 1000 ------- 3 2.0 5.1 18 18
r 0.259667 3 5 cbr 1000 ------- 3 2.0 5.1 17 17
+ 0.26 2 3 cbr 1000 ------- 3 2.0 5.1 20 20
- 0.26 2 3 cbr 1000 ------- 3 2.0 5.1 20 20
r 0.261667 2 3 cbr 1000 ------- 3 2.0 5.1 19 19
+ 0.261667 3 5 cbr 1000 ------- 3 2.0 5.1 19 19
- 0.261667 3 5 cbr 1000 ------- 3 2.0 5.1 19 19
r 0.267667 3 5 cbr 1000 ------- 3 2.0 5.1 18 18
+ 0.268 2 3 cbr 1000 ------- 3 2.0 5.1 21 21
- 0.268 2 3 cbr 1000 ------- 3 2.0 5.1 21 21
r 0.269667 2 3 cbr 1000 ------- 3 2.0 5.1 20 20
+ 0.269667 3 5 cbr 1000 ------- 3 2.0 5.1 20 20
- 0.269667 3 5 cbr 1000 ------- 3 2.0 5.1 20 20
r 0.275667 3 5 cbr 1000 ------- 3 2.0 5.1 19 19
+ 0.276 2 3 cbr 1000 ------- 3 2.0 5.1 22 22
- 0.276 2 3 cbr 1000 ------- 3 2.0 5.1 22 22
r 0.277667 2 3 cbr 1000 ------- 3 2.0 5.1 21 21
+ 0.277667 3 5 cbr 1000 ------- 3 2.0 5.1 21 21
- 0.277667 3 5 cbr 1000 ------- 3 2.0 5.1 21 21
r 0.283667 3 5 cbr 1000 ------- 3 2.0 5.1 20 20
+ 0.284 2 3 cbr 1000 ------- 3 2.0 5.1 23 23
- 0.284 2 3 cbr 1000 ------- 3 2.0 5.1 23 23
r 0.285667 2 3 cbr 1000 ------- 3 2.0 5.1 22 22
+ 0.285667 3 5 cbr 1000 ------- 3 2.0 5.1 22 22
- 0.285667 3 5 cbr 1000 ------- 3 2.0 5.1 22 22
r 0.291667 3 5 cbr 1000 ------- 3 2.0 5.1 21 21
+ 0.292 2 3 cbr 1000 ------- 3 2.0 5.1 24 24
- 0.292 2 3 cbr 1000 ------- 3 2.0 5.1 24 24
r 0.293667 2 3 cbr 1000 ------- 3 2.0 5.1 23 23
+ 0.293667 3 5 cbr 1000 ------- 3 2.0 5.1 23 23
- 0.293667 3 5 cbr 1000 ------- 3 2.0 5.1 23 23
r 0.299667 3 5 cbr 1000 ------- 3 2.0 5.1 22 22
+ 0.3 2 3 cbr 1000 ------- 3 2.0 5.1 25 25
- 0.3 2 3 cbr 1000 ------- 3 2.0 5.1 25 25
r 0.301667 2 3 cbr 1000 ------- 3 2.0 5.1 24 24
+ 0.301667 3 5 cbr 1000 ------- 3 2.0 5.1 24 24
- 0.301667 3 5 cbr 1000 ------- 3 2.0 5.1 24 24
r 0.307667 3 5 cbr 1000 ------- 3 2.0 5.1 23 23
+ 0.308 2 3 cbr 1000 ------- 3 2.0 5.1 26 26
- 0.308 2 3 cbr 1000 ------- 3 2.0 5.1 26 26
r 0.309667 2 3 cbr 1000 ------- 3 2.0 5.1 25 25
+ 0.309667 3 5 cbr 1000 ------- 3 2.0 5.1 25 25
- 0.309667 3 5 cbr 1000 ------- 3 2.0 5.1 25 25
r 0.315667 3 5 cbr 1000 ------- 3 2.0 5.1 24 24
+ 0.316 2 3 cbr 1000 ------- 3 2.0 5.1 27 27
- 0.316 2 3 cbr 1000 ------- 3 2.0 5.1 27 27
r 0.317667 2 3 cbr 1000 ------- 3 2.0 5.1 26 26
+ 0.317667 3 5 cbr 1000 ------- 3 2.0 5.1 26 26
- 0.317667 3 5 cbr 1000 ------- 3 2.0 5.1 26 26
r 0.323667 3 5 cbr 1000 ------- 3 2.0 5.1 25 25
+ 0.324 2 3 cbr 1000 ------- 3 2.0 5.1 28 28
- 0.324 2 3 cbr 1000 ------- 3 2.0 5.1 28 28
r 0.325667 2 3 cbr 1000 ------- 3 2.0 5.1 27 27
+ 0.325667 3 5 cbr 1000 ------- 3 2.0 5.1 27 27
- 0.325667 3 5 cbr 1000 ------- 3 2.0 5.1 27 27
r 0.331667 3 5 cbr 1000 ------- 3 2.0 5.1 26 26
+ 0.332 2 3 cbr 1000 ------- 3 2.0 5.1 29 29
- 0.332 2 3 cbr 1000 ------- 3 2.0 5.1 29 29
r 0.333667 2 3 cbr 1000 ------- 3 2.0 5.1 28 28
+ 0.333667 3 5 cbr 1000 ------- 3 2.0 5.1 28 28
- 0.333667 3 5 cbr 1000 ------- 3 2.0 5.1 28 28
r 0.339667 3 5 cbr 1000 ------- 3 2.0 5.1 27 27
+ 0.34 2 3 cbr 1000 ------- 3 2.0 5.1 30 30
- 0.34 2 3 cbr 1000 ------- 3 2.0 5.1 30 30
r 0.341667 2 3 cbr 1000 ------- 3 2.0 5.1 29 29
+ 0.341667 3 5 cbr 1000 ------- 3 2.0 5.1 29 29
- 0.341667 3 5 cbr 1000 ------- 3 2.0 5.1 29 29
r 0.347667 3 5 cbr 1000 ------- 3 2.0 5.1 28 28
+ 0.348 2 3 cbr 1000 ------- 3 2.0 5.1 31 31
- 0.348 2 3 cbr 1000 ------- 3 2.0 5.1 31 31
r 0.349667 2 3 cbr 1000 ------- 3 2.0 5.1 30 30
+ 0.349667 3 5 cbr 1000 ------- 3 2.0 5.1 30 30
- 0.349667 3 5 cbr 1000 ------- 3 2.0 5.1 30 30
r 0.355667 3 5 cbr 1000 ------- 3 2.0 5.1 29 29
+ 0.356 2 3 cbr 1000 ------- 3 2.0 5.1 32 32
- 0.356 2 3 cbr 1000 ------- 3 2.0 5.1 32 32
r 0.357667 2 3 cbr 1000 ------- 3 2.0 5.1 31 31
+ 0.357667 3 5 cbr 1000 ------- 3 2.0 5.1 31 31
- 0.357667 3 5 cbr 1000 ------- 3 2.0 5.1 31 31
r 0.363667 3 5 cbr 1000 ------- 3 2.0 5.1 30 30
+ 0.364 2 3 cbr 1000 ------- 3 2.0 5.1 33 33
- 0.364 2 3 cbr 1000 ------- 3 2.0 5.1 33 33
r 0.365667 2 3 cbr 1000 ------- 3 2.0 5.1 32 32
+ 0.365667 3 5 cbr 1000 ------- 3 2.0 5.1 32 32
- 0.365667 3 5 cbr 1000 ------- 3 2.0 5.1 32 32
r 0.371667 3 5 cbr 1000 ------- 3 2.0 5.1 31 31
+ 0.372 2 3 cbr 1000 ------- 3 2.0 5.1 34 34
- 0.372 2 3 cbr 1000 ------- 3 2.0 5.1 34 34
r 0.373667 2 3 cbr 1000 ------- 3 2.0 5.1 33 33
+ 0.373667 3 5 cbr 1000 ------- 3 2.0 5.1 33 33
- 0.373667 3 5 cbr 1000 ------- 3 2.0 5.1 33 33
r 0.379667 3 5 cbr 1000 ------- 3 2.0 5.1 32 32
+ 0.38 2 3 cbr 1000 ------- 3 2.0 5.1 35 35
- 0.38 2 3 cbr 1000 ------- 3 2.0 5.1 35 35
r 0.381667 2 3 cbr 1000 ------- 3 2.0 5.1 34 34
+ 0.381667 3 5 cbr 1000 ------- 3 2.0 5.1 34 34
- 0.381667 3 5 cbr 1000 ------- 3 2.0 5.1 34 34
r 0.387667 3 5 cbr 1000 ------- 3 2.0 5.1 33 33
+ 0.388 2 3 cbr 1000 ------- 3 2.0 5.1 36 36
- 0.388 2 3 cbr 1000 ------- 3 2.0 5.1 36 36
r 0.389667 2 3 cbr 1000 ------- 3 2.0 5.1 35 35
+ 0.389667 3 5 cbr 1000 ------- 3 2.0 5.1 35 35
- 0.389667 3 5 cbr 1000 ------- 3 2.0 5.1 35 35
r 0.395667 3 5 cbr 1000 ------- 3 2.0 5.1 34 34
+ 0.396 2 3 cbr 1000 ------- 3 2.0 5.1 37 37
- 0.396 2 3 cbr 1000 ------- 3 2.0 5.1 37 37
r 0.397667 2 3 cbr 1000 ------- 3 2.0 5.1 36 36
+ 0.397667 3 5 cbr 1000 ------- 3 2.0 5.1 36 36
- 0.397667 3 5 cbr 1000 ------- 3 2.0 5.1 36 36
r 0.403667 3 5 cbr 1000 ------- 3 2.0 5.1 35 35
+ 0.404 2 3 cbr 1000 ------- 3 2.0 5.1 38 38
- 0.404 2 3 cbr 1000 ------- 3 2.0 5.1 38 38
r 0.405667 2 3 cbr 1000 ------- 3 2.0 5.1 37 37
+ 0.405667 3 5 cbr 1000 ------- 3 2.0 5.1 37 37
- 0.405667 3 5 cbr 1000 ------- 3 2.0 5.1 37 37
r 0.411667 3 5 cbr 1000 ------- 3 2.0 5.1 36 36
+ 0.412 2 3 cbr 1000 ------- 3 2.0 5.1 39 39
- 0.412 2 3 cbr 1000 ------- 3 2.0 5.1 39 39
r 0.413667 2 3 cbr 1000 ------- 3 2.0 5.1 38 38
+ 0.413667 3 5 cbr 1000 ------- 3 2.0 5.1 38 38
- 0.413667 3 5 cbr 1000 ------- 3 2.0 5.1 38 38
r 0.419667 3 5 cbr 1000 ------- 3 2.0 5.1 37 37
+ 0.42 2 3 cbr 1000 ------- 3 2.0 5.1 40 40
- 0.42 2 3 cbr 1000 ------- 3 2.0 5.1 40 40
r 0.421667 2 3 cbr 1000 ------- 3 2.0 5.1 39 39
+ 0.421667 3 5 cbr 1000 ------- 3 2.0 5.1 39 39
- 0.421667 3 5 cbr 1000 ------- 3 2.0 5.1 39 39
r 0.427667 3 5 cbr 1000 ------- 3 2.0 5.1 38 38
+ 0.428 2 3 cbr 1000 ------- 3 2.0 5.1 41 41
- 0.428 2 3 cbr 1000 ------- 3 2.0 5.1 41 41
r 0.429667 2 3 cbr 1000 ------- 3 2.0 5.1 40 40
+ 0.429667 3 5 cbr 1000 ------- 3 2.0 5.1 40 40
- 0.429667 3 5 cbr 1000 ------- 3 2.0 5.1 40 40
r 0.435667 3 5 cbr 1000 ------- 3 2.0 5.1 39 39
+ 0.436 2 3 cbr 1000 ------- 3 2.0 5.1 42 42
- 0.436 2 3 cbr 1000 ------- 3 2.0 5.1 42 42
r 0.437667 2 3 cbr 1000 ------- 3 2.0 5.1 41 41
+ 0.437667 3 5 cbr 1000 ------- 3 2.0 5.1 41 41
- 0.437667 3 5 cbr 1000 ------- 3 2.0 5.1 41 41
r 0.443667 3 5 cbr 1000 ------- 3 2.0 5.1 40 40
+ 0.444 2 3 cbr 1000 ------- 3 2.0 5.1 43 43
- 0.444 2 3 cbr 1000 ------- 3 2.0 5.1 43 43
r 0.445667 2 3 cbr 1000 ------- 3 2.0 5.1 42 42
+ 0.445667 3 5 cbr 1000 ------- 3 2.0 5.1 42 42
- 0.445667 3 5 cbr 1000 ------- 3 2.0 5.1 42 42
r 0.451667 3 5 cbr 1000 ------- 3 2.0 5.1 41 41
+ 0.452 2 3 cbr 1000 ------- 3 2.0 5.1 44 44
- 0.452 2 3 cbr 1000 ------- 3 2.0 5.1 44 44
r 0.453667 2 3 cbr 1000 ------- 3 2.0 5.1 43 43
+ 0.453667 3 5 cbr 1000 ------- 3 2.0 5.1 43 43
- 0.453667 3 5 cbr 1000 ------- 3 2.0 5.1 43 43
r 0.459667 3 5 cbr 1000 ------- 3 2.0 5.1 42 42
+ 0.46 2 3 cbr 1000 ------- 3 2.0 5.1 45 45
- 0.46 2 3 cbr 1000 ------- 3 2.0 5.1 45 45
r 0.461667 2 3 cbr 1000 ------- 3 2.0 5.1 44 44
+ 0.461667 3 5 cbr 1000 ------- 3 2.0 5.1 44 44
- 0.461667 3 5 cbr 1000 ------- 3 2.0 5.1 44 44
r 0.467667 3 5 cbr 1000 ------- 3 2.0 5.1 43 43
+ 0.468 2 3 cbr 1000 ------- 3 2.0 5.1 46 46
- 0.468 2 3 cbr 1000 ------- 3 2.0 5.1 46 46
r 0.469667 2 3 cbr 1000 ------- 3 2.0 5.1 45 45
+ 0.469667 3 5 cbr 1000 ------- 3 2.0 5.1 45 45
- 0.469667 3 5 cbr 1000 ------- 3 2.0 5.1 45 45
r 0.475667 3 5 cbr 1000 ------- 3 2.0 5.1 44 44
+ 0.476 2 3 cbr 1000 ------- 3 2.0 5.1 47 47
- 0.476 2 3 cbr 1000 ------- 3 2.0 5.1 47 47
r 0.477667 2 3 cbr 1000 ------- 3 2.0 5.1 46 46
+ 0.477667 3 5 cbr 1000 ------- 3 2.0 5.1 46 46
- 0.477667 3 5 cbr 1000 ------- 3 2.0 5.1 46 46
r 0.483667 3 5 cbr 1000 ------- 3 2.0 5.1 45 45
+ 0.484 2 3 cbr 1000 ------- 3 2.0 5.1 48 48
- 0.484 2 3 cbr 1000 ------- 3 2.0 5.1 48 48
r 0.485667 2 3 cbr 1000 ------- 3 2.0 5.1 47 47
+ 0.485667 3 5 cbr 1000 ------- 3 2.0 5.1 47 47
- 0.485667 3 5 cbr 1000 ------- 3 2.0 5.1 47 47
r 0.491667 3 5 cbr 1000 ------- 3 2.0 5.1 46 46
+ 0.492 2 3 cbr 1000 ------- 3 2.0 5.1 49 49
- 0.492 2 3 cbr 1000 ------- 3 2.0 5.1 49 49
r 0.493667 2 3 cbr 1000 ------- 3 2.0 5.1 48 48
+ 0.493667 3 5 cbr 1000 ------- 3 2.0 5.1 48 48
- 0.493667 3 5 cbr 1000 ------- 3 2.0 5.1 48 48
r 0.499667 3 5 cbr 1000 ------- 3 2.0 5.1 47 47
+ 0.5 2 3 cbr 1000 ------- 3 2.0 5.1 50 50
- 0.5 2 3 cbr 1000 ------- 3 2.0 5.1 50 50
r 0.501667 2 3 cbr 1000 ------- 3 2.0 5.1 49 49
+ 0.501667 3 5 cbr 1000 ------- 3 2.0 5.1 49 49
- 0.501667 3 5 cbr 1000 ------- 3 2.0 5.1 49 49
r 0.507667 3 5 cbr 1000 ------- 3 2.0 5.1 48 48
+ 0.508 2 3 cbr 1000 ------- 3 2.0 5.1 51 51
- 0.508 2 3 cbr 1000 ------- 3 2.0 5.1 51 51
r 0.509667 2 3 cbr 1000 ------- 3 2.0 5.1 50 50
+ 0.509667 3 5 cbr 1000 ------- 3 2.0 5.1 50 50
- 0.509667 3 5 cbr 1000 ------- 3 2.0 5.1 50 50
r 0.515667 3 5 cbr 1000 ------- 3 2.0 5.1 49 49
+ 0.516 2 3 cbr 1000 ------- 3 2.0 5.1 52 52
- 0.516 2 3 cbr 1000 ------- 3 2.0 5.1 52 52
r 0.517667 2 3 cbr 1000 ------- 3 2.0 5.1 51 51
+ 0.517667 3 5 cbr 1000 ------- 3 2.0 5.1 51 51
- 0.517667 3 5 cbr 1000 ------- 3 2.0 5.1 51 51
r 0.523667 3 5 cbr 1000 ------- 3 2.0 5.1 50 50
+ 0.524 2 3 cbr 1000 ------- 3 2.0 5.1 53 53
- 0.524 2 3 cbr 1000 ------- 3 2.0 5.1 53 53
r 0.525667 2 3 cbr 1000 ------- 3 2.0 5.1 52 52
+ 0.525667 3 5 cbr 1000 ------- 3 2.0 5.1 52 52
- 0.525667 3 5 cbr 1000 ------- 3 2.0 5.1 52 52
r 0.531667 3 5 cbr 1000 ------- 3 2.0 5.1 51 51
+ 0.532 2 3 cbr 1000 ------- 3 2.0 5.1 54 54
- 0.532 2 3 cbr 1000 ------- 3 2.0 5.1 54 54
r 0.533667 2 3 cbr 1000 ------- 3 2.0 5.1 53 53
+ 0.533667 3 5 cbr 1000 ------- 3 2.0 5.1 53 53
- 0.533667 3 5 cbr 1000 ------- 3 2.0 5.1 53 53
r 0.539667 3 5 cbr 1000 ------- 3 2.0 5.1 52 52
+ 0.54 2 3 cbr 1000 ------- 3 2.0 5.1 55 55
- 0.54 2 3 cbr 1000 ------- 3 2.0 5.1 55 55
r 0.541667 2 3 cbr 1000 ------- 3 2.0 5.1 54 54
+ 0.541667 3 5 cbr 1000 ------- 3 2.0 5.1 54 54
- 0.541667 3 5 cbr 1000 ------- 3 2.0 5.1 54 54
r 0.547667 3 5 cbr 1000 ------- 3 2.0 5.1 53 53
+ 0.548 2 3 cbr 1000 ------- 3 2.0 5.1 56 56
- 0.548 2 3 cbr 1000 ------- 3 2.0 5.1 56 56
r 0.549667 2 3 cbr 1000 ------- 3 2.0 5.1 55 55
+ 0.549667 3 5 cbr 1000 ------- 3 2.0 5.1 55 55
- 0.549667 3 5 cbr 1000 ------- 3 2.0 5.1 55 55
r 0.555667 3 5 cbr 1000 ------- 3 2.0 5.1 54 54
+ 0.556 2 3 cbr 1000 ------- 3 2.0 5.1 57 57
- 0.556 2 3 cbr 1000 ------- 3 2.0 5.1 57 57
r 0.557667 2 3 cbr 1000 ------- 3 2.0 5.1 56 56
+ 0.557667 3 5 cbr 1000 ------- 3 2.0 5.1 56 56
- 0.557667 3 5 cbr 1000 ------- 3 2.0 5.1 56 56
r 0.563667 3 5 cbr 1000 ------- 3 2.0 5.1 55 55
+ 0.564 2 3 cbr 1000 ------- 3 2.0 5.1 58 58
- 0.564 2 3 cbr 1000 ------- 3 2.0 5.1 58 58
r 0.565667 2 3 cbr 1000 ------- 3 2.0 5.1 57 57
+ 0.565667 3 5 cbr 1000 ------- 3 2.0 5.1 57 57
- 0.565667 3 5 cbr 1000 ------- 3 2.0 5.1 57 57
r 0.571667 3 5 cbr 1000 ------- 3 2.0 5.1 56 56
+ 0.572 2 3 cbr 1000 ------- 3 2.0 5.1 59 59
- 0.572 2 3 cbr 1000 ------- 3 2.0 5.1 59 59
r 0.573667 2 3 cbr 1000 ------- 3 2.0 5.1 58 58
+ 0.573667 3 5 cbr 1000 ------- 3 2.0 5.1 58 58
- 0.573667 3 5 cbr 1000 ------- 3 2.0 5.1 58 58
r 0.579667 3 5 cbr 1000 ------- 3 2.0 5.1 57 57
+ 0.58 2 3 cbr 1000 ------- 3 2.0 5.1 60 60
- 0.58 2 3 cbr 1000 ------- 3 2.0 5.1 60 60
r 0.581667 2 3 cbr 1000 ------- 3 2.0 5.1 59 59
+ 0.581667 3 5 cbr 1000 ------- 3 2.0 5.1 59 59
- 0.581667 3 5 cbr 1000 ------- 3 2.0 5.1 59 59
r 0.587667 3 5 cbr 1000 ------- 3 2.0 5.1 58 58
+ 0.588 2 3 cbr 1000 ------- 3 2.0 5.1 61 61
- 0.588 2 3 cbr 1000 ------- 3 2.0 5.1 61 61
r 0.589667 2 3 cbr 1000 ------- 3 2.0 5.1 60 60
+ 0.589667 3 5 cbr 1000 ------- 3 2.0 5.1 60 60
- 0.589667 3 5 cbr 1000 ------- 3 2.0 5.1 60 60
r 0.595667 3 5 cbr 1000 ------- 3 2.0 5.1 59 59
+ 0.596 2 3 cbr 1000 ------- 3 2.0 5.1 62 62
- 0.596 2 3 cbr 1000 ------- 3 2.0 5.1 62 62
r 0.597667 2 3 cbr 1000 ------- 3 2.0 5.1 61 61
+ 0.597667 3 5 cbr 1000 ------- 3 2.0 5.1 61 61
- 0.597667 3 5 cbr 1000 ------- 3 2.0 5.1 61 61
r 0.603667 3 5 cbr 1000 ------- 3 2.0 5.1 60 60
+ 0.604 2 3 cbr 1000 ------- 3 2.0 5.1 63 63
- 0.604 2 3 cbr 1000 ------- 3 2.0 5.1 63 63
r 0.605667 2 3 cbr 1000 ------- 3 2.0 5.1 62 62
+ 0.605667 3 5 cbr 1000 ------- 3 2.0 5.1 62 62
- 0.605667 3 5 cbr 1000 ------- 3 2.0 5.1 62 62
r 0.611667 3 5 cbr 1000 ------- 3 2.0 5.1 61 61
+ 0.612 2 3 cbr 1000 ------- 3 2.0 5.1 64 64
- 0.612 2 3 cbr 1000 ------- 3 2.0 5.1 64 64
r 0.613667 2 3 cbr 1000 ------- 3 2.0 5.1 63 63
+ 0.613667 3 5 cbr 1000 ------- 3 2.0 5.1 63 63
- 0.613667 3 5 cbr 1000 ------- 3 2.0 5.1 63 63
r 0.619667 3 5 cbr 1000 ------- 3 2.0 5.1 62 62
+ 0.62 2 3 cbr 1000 ------- 3 2.0 5.1 65 65
- 0.62 2 3 cbr 1000 ------- 3 2.0 5.1 65 65
r 0.621667 2 3 cbr 1000 ------- 3 2.0 5.1 64 64
+ 0.621667 3 5 cbr 1000 ------- 3 2.0 5.1 64 64
- 0.621667 3 5 cbr 1000 ------- 3 2.0 5.1 64 64
r 0.627667 3 5 cbr 1000 ------- 3 2.0 5.1 63 63
+ 0.628 2 3 cbr 1000 ------- 3 2.0 5.1 66 66
- 0.628 2 3 cbr 1000 ------- 3 2.0 5.1 66 66
r 0.629667 2 3 cbr 1000 ------- 3 2.0 5.1 65 65
+ 0.629667 3 5 cbr 1000 ------- 3 2.0 5.1 65 65
- 0.629667 3 5 cbr 1000 ------- 3 2.0 5.1 65 65
r 0.635667 3 5 cbr 1000 ------- 3 2.0 5.1 64 64
+ 0.636 2 3 cbr 1000 ------- 3 2.0 5.1 67 67
- 0.636 2 3 cbr 1000 ------- 3 2.0 5.1 67 67
r 0.637667 2 3 cbr 1000 ------- 3 2.0 5.1 66 66
+ 0.637667 3 5 cbr 1000 ------- 3 2.0 5.1 66 66
- 0.637667 3 5 cbr 1000 ------- 3 2.0 5.1 66 66
r 0.643667 3 5 cbr 1000 ------- 3 2.0 5.1 65 65
+ 0.644 2 3 cbr 1000 ------- 3 2.0 5.1 68 68
- 0.644 2 3 cbr 1000 ------- 3 2.0 5.1 68 68
r 0.645667 2 3 cbr 1000 ------- 3 2.0 5.1 67 67
+ 0.645667 3 5 cbr 1000 ------- 3 2.0 5.1 67 67
- 0.645667 3 5 cbr 1000 ------- 3 2.0 5.1 67 67
r 0.651667 3 5 cbr 1000 ------- 3 2.0 5.1 66 66
+ 0.652 2 3 cbr 1000 ------- 3 2.0 5.1 69 69
- 0.652 2 3 cbr 1000 ------- 3 2.0 5.1 69 69
r 0.653667 2 3 cbr 1000 ------- 3 2.0 5.1 68 68
+ 0.653667 3 5 cbr 1000 ------- 3 2.0 5.1 68 68
- 0.653667 3 5 cbr 1000 ------- 3 2.0 5.1 68 68
r 0.659667 3 5 cbr 1000 ------- 3 2.0 5.1 67 67
+ 0.66 2 3 cbr 1000 ------- 3 2.0 5.1 70 70
- 0.66 2 3 cbr 1000 ------- 3 2.0 5.1 70 70
r 0.661667 2 3 cbr 1000 ------- 3 2.0 5.1 69 69
+ 0.661667 3 5 cbr 1000 ------- 3 2.0 5.1 69 69
- 0.661667 3 5 cbr 1000 ------- 3 2.0 5.1 69 69
r 0.667667 3 5 cbr 1000 ------- 3 2.0 5.1 68 68
+ 0.668 2 3 cbr 1000 ------- 3 2.0 5.1 71 71
- 0.668 2 3 cbr 1000 ------- 3 2.0 5.1 71 71
r 0.669667 2 3 cbr 1000 ------- 3 2.0 5.1 70 70
+ 0.669667 3 5 cbr 1000 ------- 3 2.0 5.1 70 70
- 0.669667 3 5 cbr 1000 ------- 3 2.0 5.1 70 70
r 0.675667 3 5 cbr 1000 ------- 3 2.0 5.1 69 69
+ 0.676 2 3 cbr 1000 ------- 3 2.0 5.1 72 72
- 0.676 2 3 cbr 1000 ------- 3 2.0 5.1 72 72
r 0.677667 2 3 cbr 1000 ------- 3 2.0 5.1 71 71
+ 0.677667 3 5 cbr 1000 ------- 3 2.0 5.1 71 71
- 0.677667 3 5 cbr 1000 ------- 3 2.0 5.1 71 71
r 0.683667 3 5 cbr 1000 ------- 3 2.0 5.1 70 70
+ 0.684 2 3 cbr 1000 ------- 3 2.0 5.1 73 73
- 0.684 2 3 cbr 1000 ------- 3 2.0 5.1 73 73
r 0.685667 2 3 cbr 1000 ------- 3 2.0 5.1 72 72
+ 0.685667 3 5 cbr 1000 ------- 3 2.0 5.1 72 72
- 0.685667 3 5 cbr 1000 ------- 3 2.0 5.1 72 72
r 0.691667 3 5 cbr 1000 ------- 3 2.0 5.1 71 71
+ 0.692 2 3 cbr 1000 ------- 3 2.0 5.1 74 74
- 0.692 2 3 cbr 1000 ------- 3 2.0 5.1 74 74
r 0.693667 2 3 cbr 1000 ------- 3 2.0 5.1 73 73
+ 0.693667 3 5 cbr 1000 ------- 3 2.0 5.1 73 73
- 0.693667 3 5 cbr 1000 ------- 3 2.0 5.1 73 73
r 0.699667 3 5 cbr 1000 ------- 3 2.0 5.1 72 72
+ 0.7 2 3 cbr 1000 ------- 3 2.0 5.1 75 75
- 0.7 2 3 cbr 1000 ------- 3 2.0 5.1 75 75
r 0.701667 2 3 cbr 1000 ------- 3 2.0 5.1 74 74
+ 0.701667 3 5 cbr 1000 ------- 3 2.0 5.1 74 74
- 0.701667 3 5 cbr 1000 ------- 3 2.0 5.1 74 74
r 0.707667 3 5 cbr 1000 ------- 3 2.0 5.1 73 73
+ 0.708 2 3 cbr 1000 ------- 3 2.0 5.1 76 76
- 0.708 2 3 cbr 1000 ------- 3 2.0 5.1 76 76
r 0.709667 2 3 cbr 1000 ------- 3 2.0 5.1 75 75
+ 0.709667 3 5 cbr 1000 ------- 3 2.0 5.1 75 75
- 0.709667 3 5 cbr 1000 ------- 3 2.0 5.1 75 75
r 0.715667 3 5 cbr 1000 ------- 3 2.0 5.1 74 74
+ 0.716 2 3 cbr 1000 ------- 3 2.0 5.1 77 77
- 0.716 2 3 cbr 1000 ------- 3 2.0 5.1 77 77
r 0.717667 2 3 cbr 1000 ------- 3 2.0 5.1 76 76
+ 0.717667 3 5 cbr 1000 ------- 3 2.0 5.1 76 76
- 0.717667 3 5 cbr 1000 ------- 3 2.0 5.1 76 76
r 0.723667 3 5 cbr 1000 ------- 3 2.0 5.1 75 75
+ 0.724 2 3 cbr 1000 ------- 3 2.0 5.1 78 78
- 0.724 2 3 cbr 1000 ------- 3 2.0 5.1 78 78
r 0.725667 2 3 cbr 1000 ------- 3 2.0 5.1 77 77
+ 0.725667 3 5 cbr 1000 ------- 3 2.0 5.1 77 77
- 0.725667 3 5 cbr 1000 ------- 3 2.0 5.1 77 77
r 0.731667 3 5 cbr 1000 ------- 3 2.0 5.1 76 76
+ 0.732 2 3 cbr 1000 ------- 3 2.0 5.1 79 79
- 0.732 2 3 cbr 1000 ------- 3 2.0 5.1 79 79
r 0.733667 2 3 cbr 1000 ------- 3 2.0 5.1 78 78
+ 0.733667 3 5 cbr 1000 ------- 3 2.0 5.1 78 78
- 0.733667 3 5 cbr 1000 ------- 3 2.0 5.1 78 78
r 0.739667 3 5 cbr 1000 ------- 3 2.0 5.1 77 77
+ 0.74 2 3 cbr 1000 ------- 3 2.0 5.1 80 80
- 0.74 2 3 cbr 1000 ------- 3 2.0 5.1 80 80
r 0.741667 2 3 cbr 1000 ------- 3 2.0 5.1 79 79
+ 0.741667 3 5 cbr 1000 ------- 3 2.0 5.1 79 79
- 0.741667 3 5 cbr 1000 ------- 3 2.0 5.1 79 79
r 0.747667 3 5 cbr 1000 ------- 3 2.0 5.1 78 78
+ 0.748 2 3 cbr 1000 ------- 3 2.0 5.1 81 81
- 0.748 2 3 cbr 1000 ------- 3 2.0 5.1 81 81
r 0.749667 2 3 cbr 1000 ------- 3 2.0 5.1 80 80
+ 0.749667 3 5 cbr 1000 ------- 3 2.0 5.1 80 80
- 0.749667 3 5 cbr 1000 ------- 3 2.0 5.1 80 80
r 0.755667 3 5 cbr 1000 ------- 3 2.0 5.1 79 79
+ 0.756 2 3 cbr 1000 ------- 3 2.0 5.1 82 82
- 0.756 2 3 cbr 1000 ------- 3 2.0 5.1 82 82
r 0.757667 2 3 cbr 1000 ------- 3 2.0 5.1 81 81
+ 0.757667 3 5 cbr 1000 ------- 3 2.0 5.1 81 81
- 0.757667 3 5 cbr 1000 ------- 3 2.0 5.1 81 81
r 0.763667 3 5 cbr 1000 ------- 3 2.0 5.1 80 80
+ 0.764 2 3 cbr 1000 ------- 3 2.0 5.1 83 83
- 0.764 2 3 cbr 1000 ------- 3 2.0 5.1 83 83
r 0.765667 2 3 cbr 1000 ------- 3 2.0 5.1 82 82
+ 0.765667 3 5 cbr 1000 ------- 3 2.0 5.1 82 82
- 0.765667 3 5 cbr 1000 ------- 3 2.0 5.1 82 82
r 0.771667 3 5 cbr 1000 ------- 3 2.0 5.1 81 81
+ 0.772 2 3 cbr 1000 ------- 3 2.0 5.1 84 84
- 0.772 2 3 cbr 1000 ------- 3 2.0 5.1 84 84
r 0.773667 2 3 cbr 1000 ------- 3 2.0 5.1 83 83
+ 0.773667 3 5 cbr 1000 ------- 3 2.0 5.1 83 83
- 0.773667 3 5 cbr 1000 ------- 3 2.0 5.1 83 83
r 0.779667 3 5 cbr 1000 ------- 3 2.0 5.1 82 82
+ 0.78 2 3 cbr 1000 ------- 3 2.0 5.1 85 85
- 0.78 2 3 cbr 1000 ------- 3 2.0 5.1 85 85
r 0.781667 2 3 cbr 1000 ------- 3 2.0 5.1 84 84
+ 0.781667 3 5 cbr 1000 ------- 3 2.0 5.1 84 84
- 0.781667 3 5 cbr 1000 ------- 3 2.0 5.1 84 84
r 0.787667 3 5 cbr 1000 ------- 3 2.0 5.1 83 83
+ 0.788 2 3 cbr 1000 ------- 3 2.0 5.1 86 86
- 0.788 2 3 cbr 1000 ------- 3 2.0 5.1 86 86
r 0.789667 2 3 cbr 1000 ------- 3 2.0 5.1 85 85
+ 0.789667 3 5 cbr 1000 ------- 3 2.0 5.1 85 85
- 0.789667 3 5 cbr 1000 ------- 3 2.0 5.1 85 85
r 0.795667 3 5 cbr 1000 ------- 3 2.0 5.1 84 84
+ 0.796 2 3 cbr 1000 ------- 3 2.0 5.1 87 87
- 0.796 2 3 cbr 1000 ------- 3 2.0 5.1 87 87
r 0.797667 2 3 cbr 1000 ------- 3 2.0 5.1 86 86
+ 0.797667 3 5 cbr 1000 ------- 3 2.0 5.1 86 86
- 0.797667 3 5 cbr 1000 ------- 3 2.0 5.1 86 86
r 0.803667 3 5 cbr 1000 ------- 3 2.0 5.1 85 85
+ 0.804 2 3 cbr 1000 ------- 3 2.0 5.1 88 88
- 0.804 2 3 cbr 1000 ------- 3 2.0 5.1 88 88
r 0.805667 2 3 cbr 1000 ------- 3 2.0 5.1 87 87
+ 0.805667 3 5 cbr 1000 ------- 3 2.0 5.1 87 87
- 0.805667 3 5 cbr 1000 ------- 3 2.0 5.1 87 87
r 0.811667 3 5 cbr 1000 ------- 3 2.0 5.1 86 86
+ 0.812 2 3 cbr 1000 ------- 3 2.0 5.1 89 89
- 0.812 2 3 cbr 1000 ------- 3 2.0 5.1 89 89
r 0.813667 2 3 cbr 1000 ------- 3 2.0 5.1 88 88
+ 0.813667 3 5 cbr 1000 ------- 3 2.0 5.1 88 88
- 0.813667 3 5 cbr 1000 ------- 3 2.0 5.1 88 88
r 0.819667 3 5 cbr 1000 ------- 3 2.0 5.1 87 87
+ 0.82 2 3 cbr 1000 ------- 3 2.0 5.1 90 90
- 0.82 2 3 cbr 1000 ------- 3 2.0 5.1 90 90
r 0.821667 2 3 cbr 1000 ------- 3 2.0 5.1 89 89
+ 0.821667 3 5 cbr 1000 ------- 3 2.0 5.1 89 89
- 0.821667 3 5 cbr 1000 ------- 3 2.0 5.1 89 89
r 0.827667 3 5 cbr 1000 ------- 3 2.0 5.1 88 88
+ 0.828 2 3 cbr 1000 ------- 3 2.0 5.1 91 91
- 0.828 2 3 cbr 1000 ------- 3 2.0 5.1 91 91
r 0.829667 2 3 cbr 1000 ------- 3 2.0 5.1 90 90
+ 0.829667 3 5 cbr 1000 ------- 3 2.0 5.1 90 90
- 0.829667 3 5 cbr 1000 ------- 3 2.0 5.1 90 90
r 0.835667 3 5 cbr 1000 ------- 3 2.0 5.1 89 89
+ 0.836 2 3 cbr 1000 ------- 3 2.0 5.1 92 92
- 0.836 2 3 cbr 1000 ------- 3 2.0 5.1 92 92
r 0.837667 2 3 cbr 1000 ------- 3 2.0 5.1 91 91
+ 0.837667 3 5 cbr 1000 ------- 3 2.0 5.1 91 91
- 0.837667 3 5 cbr 1000 ------- 3 2.0 5.1 91 91
r 0.843667 3 5 cbr 1000 ------- 3 2.0 5.1 90 90
+ 0.844 2 3 cbr 1000 ------- 3 2.0 5.1 93 93
- 0.844 2 3 cbr 1000 ------- 3 2.0 5.1 93 93
r 0.845667 2 3 cbr 1000 ------- 3 2.0 5.1 92 92
+ 0.845667 3 5 cbr 1000 ------- 3 2.0 5.1 92 92
- 0.845667 3 5 cbr 1000 ------- 3 2.0 5.1 92 92
r 0.851667 3 5 cbr 1000 ------- 3 2.0 5.1 91 91
+ 0.852 2 3 cbr 1000 ------- 3 2.0 5.1 94 94
- 0.852 2 3 cbr 1000 ------- 3 2.0 5.1 94 94
r 0.853667 2 3 cbr 1000 ------- 3 2.0 5.1 93 93
+ 0.853667 3 5 cbr 1000 ------- 3 2.0 5.1 93 93
- 0.853667 3 5 cbr 1000 ------- 3 2.0 5.1 93 93
r 0.859667 3 5 cbr 1000 ------- 3 2.0 5.1 92 92
+ 0.86 2 3 cbr 1000 ------- 3 2.0 5.1 95 95
- 0.86 2 3 cbr 1000 ------- 3 2.0 5.1 95 95
r 0.861667 2 3 cbr 1000 ------- 3 2.0 5.1 94 94
+ 0.861667 3 5 cbr 1000 ------- 3 2.0 5.1 94 94
- 0.861667 3 5 cbr 1000 ------- 3 2.0 5.1 94 94
r 0.867667 3 5 cbr 1000 ------- 3 2.0 5.1 93 93
+ 0.868 2 3 cbr 1000 ------- 3 2.0 5.1 96 96
- 0.868 2 3 cbr 1000 ------- 3 2.0 5.1 96 96
r 0.869667 2 3 cbr 1000 ------- 3 2.0 5.1 95 95
+ 0.869667 3 5 cbr 1000 ------- 3 2.0 5.1 95 95
- 0.869667 3 5 cbr 1000 ------- 3 2.0 5.1 95 95
r 0.875667 3 5 cbr 1000 ------- 3 2.0 5.1 94 94
+ 0.876 2 3 cbr 1000 ------- 3 2.0 5.1 97 97
- 0.876 2 3 cbr 1000 ------- 3 2.0 5.1 97 97
r 0.877667 2 3 cbr 1000 ------- 3 2.0 5.1 96 96
+ 0.877667 3 5 cbr 1000 ------- 3 2.0 5.1 96 96
- 0.877667 3 5 cbr 1000 ------- 3 2.0 5.1 96 96
r 0.883667 3 5 cbr 1000 ------- 3 2.0 5.1 95 95
+ 0.884 2 3 cbr 1000 ------- 3 2.0 5.1 98 98
- 0.884 2 3 cbr 1000 ------- 3 2.0 5.1 98 98
r 0.885667 2 3 cbr 1000 ------- 3 2.0 5.1 97 97
+ 0.885667 3 5 cbr 1000 ------- 3 2.0 5.1 97 97
- 0.885667 3 5 cbr 1000 ------- 3 2.0 5.1 97 97
r 0.891667 3 5 cbr 1000 ------- 3 2.0 5.1 96 96
+ 0.892 2 3 cbr 1000 ------- 3 2.0 5.1 99 99
- 0.892 2 3 cbr 1000 ------- 3 2.0 5.1 99 99
r 0.893667 2 3 cbr 1000 ------- 3 2.0 5.1 98 98
+ 0.893667 3 5 cbr 1000 ------- 3 2.0 5.1 98 98
- 0.893667 3 5 cbr 1000 ------- 3 2.0 5.1 98 98
r 0.899667 3 5 cbr 1000 ------- 3 2.0 5.1 97 97
+ 0.9 4 3 tcp 40 ------- 2 4.0 1.0 0 100
- 0.9 4 3 tcp 40 ------- 2 4.0 1.0 0 100
+ 0.9 2 3 cbr 1000 ------- 3 2.0 5.1 100 101
- 0.9 2 3 cbr 1000 ------- 3 2.0 5.1 100 101
r 0.901667 2 3 cbr 1000 ------- 3 2.0 5.1 99 99
+ 0.901667 3 5 cbr 1000 ------- 3 2.0 5.1 99 99
- 0.901667 3 5 cbr 1000 ------- 3 2.0 5.1 99 99
r 0.907667 3 5 cbr 1000 ------- 3 2.0 5.1 98 98
+ 0.908 2 3 cbr 1000 ------- 3 2.0 5.1 101 102
- 0.908 2 3 cbr 1000 ------- 3 2.0 5.1 101 102
r 0.909128 4 3 tcp 40 ------- 2 4.0 1.0 0 100
+ 0.909128 3 1 tcp 40 ------- 2 4.0 1.0 0 100
- 0.909128 3 1 tcp 40 ------- 2 4.0 1.0 0 100
r 0.909667 2 3 cbr 1000 ------- 3 2.0 5.1 100 101
+ 0.909667 3 5 cbr 1000 ------- 3 2.0 5.1 100 101
- 0.909667 3 5 cbr 1000 ------- 3 2.0 5.1 100 101
r 0.915667 3 5 cbr 1000 ------- 3 2.0 5.1 99 99
+ 0.916 2 3 cbr 1000 ------- 3 2.0 5.1 102 103
- 0.916 2 3 cbr 1000 ------- 3 2.0 5.1 102 103
r 0.917667 2 3 cbr 1000 ------- 3 2.0 5.1 101 102
+ 0.917667 3 5 cbr 1000 ------- 3 2.0 5.1 101 102
- 0.917667 3 5 cbr 1000 ------- 3 2.0 5.1 101 102
r 0.923667 3 5 cbr 1000 ------- 3 2.0 5.1 100 101
+ 0.924 2 3 cbr 1000 ------- 3 2.0 5.1 103 104
- 0.924 2 3 cbr 1000 ------- 3 2.0 5.1 103 104
r 0.925667 2 3 cbr 1000 ------- 3 2.0 5.1 102 103
+ 0.925667 3 5 cbr 1000 ------- 3 2.0 5.1 102 103
- 0.925667 3 5 cbr 1000 ------- 3 2.0 5.1 102 103
r 0.931667 3 5 cbr 1000 ------- 3 2.0 5.1 101 102
+ 0.932 2 3 cbr 1000 ------- 3 2.0 5.1 104 105
- 0.932 2 3 cbr 1000 ------- 3 2.0 5.1 104 105
r 0.933667 2 3 cbr 1000 ------- 3 2.0 5.1 103 104
+ 0.933667 3 5 cbr 1000 ------- 3 2.0 5.1 103 104
- 0.933667 3 5 cbr 1000 ------- 3 2.0 5.1 103 104
r 0.934316 3 1 tcp 40 ------- 2 4.0 1.0 0 100
+ 0.934316 1 3 ack 40 ------- 2 1.0 4.0 0 106
- 0.934316 1 3 ack 40 ------- 2 1.0 4.0 0 106
r 0.939667 3 5 cbr 1000 ------- 3 2.0 5.1 102 103
+ 0.94 2 3 cbr 1000 ------- 3 2.0 5.1 105 107
- 0.94 2 3 cbr 1000 ------- 3 2.0 5.1 105 107
r 0.941667 2 3 cbr 1000 ------- 3 2.0 5.1 104 105
+ 0.941667 3 5 cbr 1000 ------- 3 2.0 5.1 104 105
- 0.941667 3 5 cbr 1000 ------- 3 2.0 5.1 104 105
r 0.947667 3 5 cbr 1000 ------- 3 2.0 5.1 103 104
+ 0.948 2 3 cbr 1000 ------- 3 2.0 5.1 106 108
- 0.948 2 3 cbr 1000 ------- 3 2.0 5.1 106 108